 written on 24May2024 at 15:25:51 
           9
         617
    4    3    2    2    2    1    2    2    1    1    2    3    2    2    2
    3    6    2    2    2    1    2    2    1    1    2    2    1    1    1
    2    2    1    1    1    1    2    2    1    1    1    1    1    2    2
    1    1    1    1    1    1    2    6    2    2    2    2    2    2    2
    6    2    2    3    1    1    1    3    2    1    1    1    1    2    2
    1    1    1    1    1    2    2    1    1    1    1    1    1    2    3
    1    1    1    1    1    1    1    3    1    1    1    1    1    1    1
    1    2    1    1    1    1    1    1    1    2    2    1    1    1    1
    1    1    2    3    2    2    2    3    2    1    2    2    1    1    1
    1    2    4    1    1    1    1    1    1    1    4    1    1    1    1
    1    1    1    1    2    1    1    1    1    1    1    1    2    1    1
    1    1    1    1    1    1    2    1    1    1    1    1    1    1    2
    1    1    1    1    1    1    1    1    2    1    1    1    1    1    2
    2    1    1    2    4    3    2    1    1    2    2    1    1    1    1
    1    2    1    1    1    1    1    1    1    1    2    1    1    1    1
    1    1    1    2    1    1    1    1    1    1    1    1    2    1    1
    1    1    1    1    1    2    1    1    1    1    1    1    1    1    3
    1    1    1    1    1    1    1    3    2    1    1    1    1    2    2
    1    2    2    2    2    1    1    1    2    2    1    1    1    1    1
    1    2    2    1    1    1    1    1    1    1    2    1    1    1    1
    1    1    1    1    2    1    1    1    1    1    1    1    2    1    1
    1    1    1    1    1    1    2    1    1    1    1    1    1    1    2
    2    1    1    1    1    1    1    2    2    1    1    1    2    2    2
    2    1    2    2    1    1    1    1    2    3    1    1    1    1    1
    1    1    3    1    1    1    1    1    1    1    1    2    1    1    1
    1    1    1    1    2    1    1    1    1    1    1    1    1    2    1
    1    1    1    1    1    1    2    1    1    1    1    1    1    1    1
    2    1    1    1    1    1    2    2    1    1    2    3    4    2    1
    1    2    2    1    1    1    1    1    2    1    1    1    1    1    1
    1    1    2    1    1    1    1    1    1    1    2    1    1    1    1
    1    1    1    1    2    1    1    1    1    1    1    1    2    1    1
    1    1    1    1    1    1    4    1    1    1    1    1    1    1    4
    2    1    1    1    1    2    2    1    2    3    2    2    2    3    2
    1    1    1    1    1    1    2    2    1    1    1    1    1    1    1
    2    1    1    1    1    1    1    1    1    3    1    1    1    1    1
    1    1    3    2    1    1    1    1    1    1    2    2    1    1    1
    1    1    2    2    1    1    1    1    2    3    1    1    1    3    2
    2    6    2    2    2    2    2    2    2    6    2    1    1    1    1
    1    1    2    2    1    1    1    1    1    2    2    1    1    1    1
    2    2    1    1    1    2    2    1    1    2    2    1    2    2    2
    6    3    2    2    2    3    2    1    1    2    2    1    2    2    2
    3    4
   -6    2    2    1    1   -0.005876    0.000000
   -6    2    2    2    1    0.000001   -0.000000
   -6    2    2    3    1   -0.000001   -0.000000
   -6    2    2    4    1   -0.000002   -0.000000
   -6    2    2    5    1   -0.000015   -0.000000
   -6    2    2    6    1   -0.000000    0.000000
   -6    2    2    7    1   -0.000000    0.000000
   -6    2    2    8    1    0.000000    0.000000
   -6    2    2    9    1   -0.000000    0.000000
   -6    2    2    1    2   -0.000001   -0.000000
   -6    2    2    2    2   -0.016072    0.000000
   -6    2    2    3    2    0.000004   -0.000000
   -6    2    2    4    2    0.000000    0.000000
   -6    2    2    5    2    0.000000   -0.000000
   -6    2    2    6    2   -0.000000    0.000000
   -6    2    2    7    2    0.000000   -0.000000
   -6    2    2    8    2   -0.000001    0.000002
   -6    2    2    9    2    0.001657   -0.000000
   -6    2    2    1    3    0.000001   -0.000000
   -6    2    2    2    3    0.000004    0.000000
   -6    2    2    3    3   -0.016071    0.000000
   -6    2    2    4    3   -0.000003   -0.000000
   -6    2    2    5    3    0.000002   -0.000002
   -6    2    2    6    3    0.000000   -0.000000
   -6    2    2    7    3    0.001657    0.000000
   -6    2    2    8    3   -0.000001   -0.000001
   -6    2    2    9    3   -0.000000    0.000000
   -6    2    2    1    4    0.000002   -0.000000
   -6    2    2    2    4    0.000000   -0.000000
   -6    2    2    3    4   -0.000003    0.000000
   -6    2    2    4    4   -0.016067   -0.000000
   -6    2    2    5    4   -0.000001    0.000002
   -6    2    2    6    4    0.001657    0.000000
   -6    2    2    7    4   -0.000000    0.000000
   -6    2    2    8    4    0.000003   -0.000001
   -6    2    2    9    4    0.000000   -0.000000
   -6    2    2    1    5   -0.000015    0.000000
   -6    2    2    2    5   -0.000000   -0.000000
   -6    2    2    3    5   -0.000002   -0.000002
   -6    2    2    4    5    0.000001    0.000002
   -6    2    2    5    5   -0.000061    0.000000
   -6    2    2    6    5   -0.000000   -0.000000
   -6    2    2    7    5   -0.000000    0.000000
   -6    2    2    8    5    0.000000    0.000000
   -6    2    2    9    5    0.000000    0.000000
   -6    2    2    1    6   -0.000000   -0.000000
   -6    2    2    2    6    0.000000    0.000000
   -6    2    2    3    6   -0.000000   -0.000000
   -6    2    2    4    6   -0.001657    0.000000
   -6    2    2    5    6   -0.000000    0.000000
   -6    2    2    6    6   -0.000171   -0.000000
   -6    2    2    7    6   -0.000000   -0.000000
   -6    2    2    8    6   -0.000000   -0.000000
   -6    2    2    9    6   -0.000000    0.000000
   -6    2    2    1    7   -0.000000   -0.000000
   -6    2    2    2    7   -0.000000   -0.000000
   -6    2    2    3    7   -0.001657    0.000000
   -6    2    2    4    7    0.000000    0.000000
   -6    2    2    5    7   -0.000000   -0.000000
   -6    2    2    6    7   -0.000000    0.000000
   -6    2    2    7    7   -0.000171    0.000000
   -6    2    2    8    7    0.000000   -0.000000
   -6    2    2    9    7   -0.000000   -0.000000
   -6    2    2    1    8    0.000000   -0.000000
   -6    2    2    2    8    0.000001    0.000002
   -6    2    2    3    8    0.000001   -0.000001
   -6    2    2    4    8   -0.000003   -0.000001
   -6    2    2    5    8    0.000000   -0.000000
   -6    2    2    6    8   -0.000000    0.000000
   -6    2    2    7    8    0.000000    0.000000
   -6    2    2    8    8   -0.000061    0.000000
   -6    2    2    9    8   -0.000000   -0.000000
   -6    2    2    1    9   -0.000000   -0.000000
   -6    2    2    2    9   -0.001657   -0.000000
   -6    2    2    3    9    0.000000    0.000000
   -6    2    2    4    9   -0.000000   -0.000000
   -6    2    2    5    9    0.000000   -0.000000
   -6    2    2    6    9   -0.000000   -0.000000
   -6    2    2    7    9   -0.000000    0.000000
   -6    2    2    8    9   -0.000000    0.000000
   -6    2    2    9    9   -0.000171   -0.000000
   -5   -1    3    1    1   -0.001328    0.000000
   -5   -1    3    2    1   -0.003802   -0.000001
   -5   -1    3    3    1   -0.003803    0.000001
   -5   -1    3    4    1    0.003797   -0.000000
   -5   -1    3    5    1   -0.000004    0.000001
   -5   -1    3    6    1    0.000077   -0.000000
   -5   -1    3    7    1   -0.000075    0.000000
   -5   -1    3    8    1    0.000001   -0.000000
   -5   -1    3    9    1   -0.000077   -0.000000
   -5   -1    3    1    2    0.003802   -0.000001
   -5   -1    3    2    2   -0.007409    0.000000
   -5   -1    3    3    2    0.005775   -0.000018
   -5   -1    3    4    2   -0.005744    0.000006
   -5   -1    3    5    2   -0.000460    0.000000
   -5   -1    3    6    2   -0.000313   -0.000002
   -5   -1    3    7    2    0.000315   -0.000001
   -5   -1    3    8    2   -0.000001    0.000004
   -5   -1    3    9    2   -0.000256   -0.000000
   -5   -1    3    1    3    0.003803    0.000001
   -5   -1    3    2    3    0.005775    0.000018
   -5   -1    3    3    3   -0.007406   -0.000000
   -5   -1    3    4    3   -0.005777   -0.000005
   -5   -1    3    5    3    0.000242   -0.000003
   -5   -1    3    6    3   -0.000314    0.000001
   -5   -1    3    7    3   -0.000258    0.000000
   -5   -1    3    8    3   -0.000399   -0.000002
   -5   -1    3    9    3    0.000313    0.000001
   -5   -1    3    1    4   -0.003797   -0.000000
   -5   -1    3    2    4   -0.005744   -0.000006
   -5   -1    3    3    4   -0.005777    0.000005
   -5   -1    3    4    4   -0.007416   -0.000000
   -5   -1    3    5    4   -0.000244   -0.000002
   -5   -1    3    6    4   -0.000258   -0.000000
   -5   -1    3    7    4   -0.000317    0.000000
   -5   -1    3    8    4   -0.000398    0.000001
   -5   -1    3    9    4   -0.000315    0.000000
   -5   -1    3    1    5   -0.000004   -0.000001
   -5   -1    3    2    5    0.000460    0.000000
   -5   -1    3    3    5   -0.000242   -0.000003
   -5   -1    3    4    5    0.000244   -0.000002
   -5   -1    3    5    5   -0.000191    0.000000
   -5   -1    3    6    5   -0.000007   -0.000000
   -5   -1    3    7    5    0.000007   -0.000000
   -5   -1    3    8    5    0.000000   -0.000000
   -5   -1    3    9    5   -0.000014   -0.000000
   -5   -1    3    1    6    0.000077    0.000000
   -5   -1    3    2    6    0.000313   -0.000002
   -5   -1    3    3    6    0.000314    0.000001
   -5   -1    3    4    6    0.000258   -0.000000
   -5   -1    3    5    6   -0.000007    0.000000
   -5   -1    3    6    6    0.000114    0.000000
   -5   -1    3    7    6   -0.000023    0.000000
   -5   -1    3    8    6   -0.000012   -0.000000
   -5   -1    3    9    6   -0.000022   -0.000000
   -5   -1    3    1    7   -0.000075   -0.000000
   -5   -1    3    2    7   -0.000315   -0.000001
   -5   -1    3    3    7    0.000258    0.000000
   -5   -1    3    4    7    0.000317    0.000000
   -5   -1    3    5    7    0.000007    0.000000
   -5   -1    3    6    7   -0.000023   -0.000000
   -5   -1    3    7    7    0.000115    0.000000
   -5   -1    3    8    7   -0.000012    0.000000
   -5   -1    3    9    7    0.000022   -0.000000
   -5   -1    3    1    8    0.000001    0.000000
   -5   -1    3    2    8    0.000001    0.000004
   -5   -1    3    3    8    0.000399   -0.000002
   -5   -1    3    4    8    0.000398    0.000001
   -5   -1    3    5    8    0.000000    0.000000
   -5   -1    3    6    8   -0.000012    0.000000
   -5   -1    3    7    8   -0.000012   -0.000000
   -5   -1    3    8    8   -0.000192   -0.000000
   -5   -1    3    9    8    0.000000    0.000000
   -5   -1    3    1    9   -0.000077    0.000000
   -5   -1    3    2    9    0.000256   -0.000000
   -5   -1    3    3    9   -0.000313    0.000001
   -5   -1    3    4    9    0.000315    0.000000
   -5   -1    3    5    9   -0.000014    0.000000
   -5   -1    3    6    9   -0.000022    0.000000
   -5   -1    3    7    9    0.000022    0.000000
   -5   -1    3    8    9    0.000000   -0.000000
   -5   -1    3    9    9    0.000114   -0.000000
   -5    0    2    1    1   -0.000300   -0.000000
   -5    0    2    2    1   -0.001224    0.000000
   -5    0    2    3    1    0.000307    0.000006
   -5    0    2    4    1    0.001227    0.000005
   -5    0    2    5    1   -0.000056    0.000000
   -5    0    2    6    1    0.000113    0.000000
   -5    0    2    7    1    0.000248    0.000000
   -5    0    2    8    1    0.000095   -0.000000
   -5    0    2    9    1   -0.000112    0.000000
   -5    0    2    1    2    0.001224    0.000000
   -5    0    2    2    2    0.003774   -0.000000
   -5    0    2    3    2   -0.007558    0.000004
   -5    0    2    4    2    0.001261    0.000013
   -5    0    2    5    2    0.000580   -0.000000
   -5    0    2    6    2   -0.000582   -0.000001
   -5    0    2    7    2   -0.000282   -0.000000
   -5    0    2    8    2    0.000603   -0.000002
   -5    0    2    9    2   -0.000672    0.000000
   -5    0    2    1    3   -0.000307    0.000006
   -5    0    2    2    3   -0.007558   -0.000004
   -5    0    2    3    3    0.011429    0.000000
   -5    0    2    4    3    0.007597   -0.000030
   -5    0    2    5    3    0.000268    0.000001
   -5    0    2    6    3    0.000790   -0.000000
   -5    0    2    7    3    0.000382   -0.000001
   -5    0    2    8    3   -0.000471    0.000001
   -5    0    2    9    3   -0.000791   -0.000000
   -5    0    2    1    4   -0.001227    0.000005
   -5    0    2    2    4    0.001261   -0.000013
   -5    0    2    3    4    0.007597    0.000030
   -5    0    2    4    4    0.003832    0.000000
   -5    0    2    5    4    0.000809    0.000002
   -5    0    2    6    4   -0.000670    0.000001
   -5    0    2    7    4    0.000282    0.000001
   -5    0    2    8    4    0.000192   -0.000000
   -5    0    2    9    4   -0.000585   -0.000001
   -5    0    2    1    5   -0.000056   -0.000000
   -5    0    2    2    5   -0.000580   -0.000000
   -5    0    2    3    5   -0.000268    0.000001
   -5    0    2    4    5   -0.000809    0.000002
   -5    0    2    5    5    0.000117    0.000000
   -5    0    2    6    5   -0.000034    0.000000
   -5    0    2    7    5   -0.000000    0.000000
   -5    0    2    8    5    0.000029    0.000000
   -5    0    2    9    5   -0.000016    0.000000
   -5    0    2    1    6    0.000113   -0.000000
   -5    0    2    2    6    0.000582   -0.000001
   -5    0    2    3    6   -0.000790   -0.000000
   -5    0    2    4    6    0.000670    0.000001
   -5    0    2    5    6   -0.000034   -0.000000
   -5    0    2    6    6    0.000078   -0.000000
   -5    0    2    7    6   -0.000026   -0.000000
   -5    0    2    8    6    0.000001   -0.000000
   -5    0    2    9    6    0.000064   -0.000000
   -5    0    2    1    7    0.000248   -0.000000
   -5    0    2    2    7    0.000282   -0.000000
   -5    0    2    3    7   -0.000382   -0.000001
   -5    0    2    4    7   -0.000282    0.000001
   -5    0    2    5    7   -0.000000   -0.000000
   -5    0    2    6    7   -0.000026    0.000000
   -5    0    2    7    7    0.000050   -0.000000
   -5    0    2    8    7    0.000001   -0.000000
   -5    0    2    9    7    0.000027    0.000000
   -5    0    2    1    8    0.000095    0.000000
   -5    0    2    2    8   -0.000603   -0.000002
   -5    0    2    3    8    0.000471    0.000001
   -5    0    2    4    8   -0.000192   -0.000000
   -5    0    2    5    8    0.000029   -0.000000
   -5    0    2    6    8    0.000001    0.000000
   -5    0    2    7    8    0.000001    0.000000
   -5    0    2    8    8    0.000084   -0.000000
   -5    0    2    9    8   -0.000031    0.000000
   -5    0    2    1    9   -0.000112   -0.000000
   -5    0    2    2    9    0.000672    0.000000
   -5    0    2    3    9    0.000791   -0.000000
   -5    0    2    4    9    0.000585   -0.000001
   -5    0    2    5    9   -0.000016   -0.000000
   -5    0    2    6    9    0.000064    0.000000
   -5    0    2    7    9    0.000027   -0.000000
   -5    0    2    8    9   -0.000031   -0.000000
   -5    0    2    9    9    0.000079    0.000000
   -5    0    3    1    1   -0.000304   -0.000000
   -5    0    3    2    1   -0.001227   -0.000003
   -5    0    3    3    1   -0.001230    0.000003
   -5    0    3    4    1   -0.000318   -0.000000
   -5    0    3    5    1   -0.000056   -0.000000
   -5    0    3    6    1   -0.000247    0.000000
   -5    0    3    7    1   -0.000112    0.000000
   -5    0    3    8    1   -0.000095    0.000000
   -5    0    3    9    1   -0.000112   -0.000000
   -5    0    3    1    2    0.001227   -0.000003
   -5    0    3    2    2    0.003810    0.000000
   -5    0    3    3    2   -0.001237    0.000009
   -5    0    3    4    2    0.007583    0.000018
   -5    0    3    5    2    0.000583    0.000000
   -5    0    3    6    2    0.000284   -0.000001
   -5    0    3    7    2    0.000583    0.000002
   -5    0    3    8    2   -0.000606   -0.000002
   -5    0    3    9    2   -0.000671    0.000001
   -5    0    3    1    3    0.001230    0.000003
   -5    0    3    2    3   -0.001237   -0.000009
   -5    0    3    3    3    0.003824    0.000000
   -5    0    3    4    3    0.007609   -0.000019
   -5    0    3    5    3   -0.000811    0.000002
   -5    0    3    6    3    0.000284    0.000000
   -5    0    3    7    3   -0.000671   -0.000001
   -5    0    3    8    3    0.000194    0.000001
   -5    0    3    9    3    0.000581   -0.000002
   -5    0    3    1    4    0.000318   -0.000000
   -5    0    3    2    4    0.007583   -0.000018
   -5    0    3    3    4    0.007609    0.000019
   -5    0    3    4    4    0.011448   -0.000000
   -5    0    3    5    4   -0.000267    0.000004
   -5    0    3    6    4    0.000382   -0.000000
   -5    0    3    7    4    0.000793    0.000000
   -5    0    3    8    4   -0.000469   -0.000002
   -5    0    3    9    4    0.000792   -0.000000
   -5    0    3    1    5   -0.000056    0.000000
   -5    0    3    2    5   -0.000583    0.000000
   -5    0    3    3    5    0.000811    0.000002
   -5    0    3    4    5    0.000267    0.000004
   -5    0    3    5    5    0.000117   -0.000000
   -5    0    3    6    5    0.000001   -0.000000
   -5    0    3    7    5    0.000034    0.000000
   -5    0    3    8    5   -0.000029    0.000000
   -5    0    3    9    5   -0.000016    0.000000
   -5    0    3    1    6   -0.000247   -0.000000
   -5    0    3    2    6   -0.000284   -0.000001
   -5    0    3    3    6   -0.000284    0.000000
   -5    0    3    4    6   -0.000382   -0.000000
   -5    0    3    5    6    0.000001    0.000000
   -5    0    3    6    6    0.000049    0.000000
   -5    0    3    7    6   -0.000027   -0.000000
   -5    0    3    8    6    0.000001   -0.000000
   -5    0    3    9    6   -0.000027   -0.000000
   -5    0    3    1    7   -0.000112   -0.000000
   -5    0    3    2    7   -0.000583    0.000002
   -5    0    3    3    7    0.000671   -0.000001
   -5    0    3    4    7   -0.000793    0.000000
   -5    0    3    5    7    0.000034   -0.000000
   -5    0    3    6    7   -0.000027    0.000000
   -5    0    3    7    7    0.000078   -0.000000
   -5    0    3    8    7    0.000001    0.000000
   -5    0    3    9    7   -0.000064   -0.000000
   -5    0    3    1    8   -0.000095   -0.000000
   -5    0    3    2    8    0.000606   -0.000002
   -5    0    3    3    8   -0.000194    0.000001
   -5    0    3    4    8    0.000469   -0.000002
   -5    0    3    5    8   -0.000029   -0.000000
   -5    0    3    6    8    0.000001    0.000000
   -5    0    3    7    8    0.000001   -0.000000
   -5    0    3    8    8    0.000084   -0.000000
   -5    0    3    9    8    0.000031    0.000000
   -5    0    3    1    9   -0.000112    0.000000
   -5    0    3    2    9    0.000671    0.000001
   -5    0    3    3    9   -0.000581   -0.000002
   -5    0    3    4    9   -0.000792   -0.000000
   -5    0    3    5    9   -0.000016   -0.000000
   -5    0    3    6    9   -0.000027    0.000000
   -5    0    3    7    9   -0.000064    0.000000
   -5    0    3    8    9    0.000031   -0.000000
   -5    0    3    9    9    0.000079    0.000000
   -5    1    1    1    1    0.000397    0.000000
   -5    1    1    2    1    0.000001   -0.000002
   -5    1    1    3    1    0.004391    0.000000
   -5    1    1    4    1    0.000006    0.000002
   -5    1    1    5    1   -0.000127   -0.000002
   -5    1    1    6    1   -0.000001    0.000000
   -5    1    1    7    1    0.000008    0.000000
   -5    1    1    8    1    0.000225   -0.000001
   -5    1    1    9    1    0.000001   -0.000000
   -5    1    1    1    2   -0.000001   -0.000002
   -5    1    1    2    2    0.003153   -0.000000
   -5    1    1    3    2    0.000002   -0.000007
   -5    1    1    4    2    0.006483   -0.000023
   -5    1    1    5    2    0.000002   -0.000000
   -5    1    1    6    2   -0.000470   -0.000001
   -5    1    1    7    2    0.000000   -0.000001
   -5    1    1    8    2    0.000001   -0.000001
   -5    1    1    9    2   -0.000949    0.000001
   -5    1    1    1    3   -0.004391    0.000000
   -5    1    1    2    3    0.000002    0.000007
   -5    1    1    3    3   -0.003677   -0.000000
   -5    1    1    4    3   -0.000041   -0.000007
   -5    1    1    5    3    0.000166    0.000002
   -5    1    1    6    3    0.000001    0.000000
   -5    1    1    7    3    0.001658   -0.000000
   -5    1    1    8    3   -0.000309    0.000001
   -5    1    1    9    3   -0.000000   -0.000000
   -5    1    1    1    4   -0.000006    0.000002
   -5    1    1    2    4    0.006483    0.000023
   -5    1    1    3    4   -0.000041    0.000007
   -5    1    1    4    4    0.003122    0.000000
   -5    1    1    5    4    0.000002   -0.000001
   -5    1    1    6    4   -0.000949   -0.000000
   -5    1    1    7    4    0.000001    0.000001
   -5    1    1    8    4   -0.000002    0.000000
   -5    1    1    9    4   -0.000468    0.000001
   -5    1    1    1    5   -0.000127    0.000002
   -5    1    1    2    5   -0.000002   -0.000000
   -5    1    1    3    5   -0.000166    0.000002
   -5    1    1    4    5   -0.000002   -0.000001
   -5    1    1    5    5   -0.000163   -0.000000
   -5    1    1    6    5   -0.000000    0.000000
   -5    1    1    7    5   -0.000055    0.000000
   -5    1    1    8    5   -0.000068   -0.000000
   -5    1    1    9    5    0.000000    0.000000
   -5    1    1    1    6   -0.000001   -0.000000
   -5    1    1    2    6    0.000470   -0.000001
   -5    1    1    3    6   -0.000001    0.000000
   -5    1    1    4    6    0.000949   -0.000000
   -5    1    1    5    6   -0.000000   -0.000000
   -5    1    1    6    6    0.000050    0.000000
   -5    1    1    7    6   -0.000001    0.000000
   -5    1    1    8    6   -0.000000   -0.000000
   -5    1    1    9    6    0.000156    0.000000
   -5    1    1    1    7    0.000008   -0.000000
   -5    1    1    2    7   -0.000000   -0.000001
   -5    1    1    3    7   -0.001658   -0.000000
   -5    1    1    4    7   -0.000001    0.000001
   -5    1    1    5    7   -0.000055   -0.000000
   -5    1    1    6    7   -0.000001   -0.000000
   -5    1    1    7    7   -0.000146    0.000000
   -5    1    1    8    7    0.000097   -0.000000
   -5    1    1    9    7    0.000001    0.000000
   -5    1    1    1    8    0.000225    0.000001
   -5    1    1    2    8   -0.000001   -0.000001
   -5    1    1    3    8    0.000309    0.000001
   -5    1    1    4    8    0.000002    0.000000
   -5    1    1    5    8   -0.000068    0.000000
   -5    1    1    6    8   -0.000000    0.000000
   -5    1    1    7    8    0.000097    0.000000
   -5    1    1    8    8   -0.000083   -0.000000
   -5    1    1    9    8    0.000000    0.000000
   -5    1    1    1    9    0.000001    0.000000
   -5    1    1    2    9    0.000949    0.000001
   -5    1    1    3    9    0.000000   -0.000000
   -5    1    1    4    9    0.000468    0.000001
   -5    1    1    5    9    0.000000   -0.000000
   -5    1    1    6    9    0.000156   -0.000000
   -5    1    1    7    9    0.000001   -0.000000
   -5    1    1    8    9    0.000000   -0.000000
   -5    1    1    9    9    0.000050    0.000000
   -5    1    2    1    1    0.001609   -0.000000
   -5    1    2    2    1   -0.001515    0.000004
   -5    1    2    3    1   -0.000595    0.000000
   -5    1    2    4    1    0.000591    0.000001
   -5    1    2    5    1   -0.000660   -0.000000
   -5    1    2    6    1   -0.000348   -0.000000
   -5    1    2    7    1    0.000348   -0.000000
   -5    1    2    8    1    0.000000   -0.000000
   -5    1    2    9    1   -0.000026   -0.000000
   -5    1    2    1    2    0.001515    0.000004
   -5    1    2    2    2    0.006158   -0.000000
   -5    1    2    3    2   -0.006068   -0.000021
   -5    1    2    4    2    0.006093   -0.000020
   -5    1    2    5    2   -0.000497   -0.000001
   -5    1    2    6    2    0.000198   -0.000001
   -5    1    2    7    2   -0.000197    0.000001
   -5    1    2    8    2   -0.000001   -0.000001
   -5    1    2    9    2    0.000287    0.000001
   -5    1    2    1    3    0.000595    0.000000
   -5    1    2    2    3   -0.006068    0.000021
   -5    1    2    3    3    0.002667   -0.000000
   -5    1    2    4    3    0.002963    0.000019
   -5    1    2    5    3   -0.000600   -0.000002
   -5    1    2    6    3    0.000487   -0.000001
   -5    1    2    7    3    0.000507   -0.000000
   -5    1    2    8    3    0.000460   -0.000000
   -5    1    2    9    3   -0.000866   -0.000001
   -5    1    2    1    4   -0.000591    0.000001
   -5    1    2    2    4    0.006093    0.000020
   -5    1    2    3    4    0.002963   -0.000019
   -5    1    2    4    4    0.002697    0.000000
   -5    1    2    5    4    0.000598    0.000001
   -5    1    2    6    4    0.000507   -0.000001
   -5    1    2    7    4    0.000490    0.000001
   -5    1    2    8    4    0.000461   -0.000001
   -5    1    2    9    4    0.000864    0.000000
   -5    1    2    1    5   -0.000660    0.000000
   -5    1    2    2    5    0.000497   -0.000001
   -5    1    2    3    5    0.000600   -0.000002
   -5    1    2    4    5   -0.000598    0.000001
   -5    1    2    5    5   -0.000025    0.000000
   -5    1    2    6    5    0.000043   -0.000000
   -5    1    2    7    5   -0.000043    0.000000
   -5    1    2    8    5    0.000000   -0.000000
   -5    1    2    9    5    0.000048   -0.000000
   -5    1    2    1    6   -0.000348    0.000000
   -5    1    2    2    6   -0.000198   -0.000001
   -5    1    2    3    6   -0.000487   -0.000001
   -5    1    2    4    6   -0.000507   -0.000001
   -5    1    2    5    6    0.000043    0.000000
   -5    1    2    6    6   -0.000029    0.000000
   -5    1    2    7    6   -0.000093    0.000000
   -5    1    2    8    6    0.000015    0.000000
   -5    1    2    9    6    0.000151    0.000000
   -5    1    2    1    7    0.000348    0.000000
   -5    1    2    2    7    0.000197    0.000001
   -5    1    2    3    7   -0.000507   -0.000000
   -5    1    2    4    7   -0.000490    0.000001
   -5    1    2    5    7   -0.000043   -0.000000
   -5    1    2    6    7   -0.000093   -0.000000
   -5    1    2    7    7   -0.000029    0.000000
   -5    1    2    8    7    0.000014    0.000000
   -5    1    2    9    7   -0.000152   -0.000000
   -5    1    2    1    8    0.000000    0.000000
   -5    1    2    2    8    0.000001   -0.000001
   -5    1    2    3    8   -0.000460   -0.000000
   -5    1    2    4    8   -0.000461   -0.000001
   -5    1    2    5    8    0.000000    0.000000
   -5    1    2    6    8    0.000015   -0.000000
   -5    1    2    7    8    0.000014   -0.000000
   -5    1    2    8    8    0.000025    0.000000
   -5    1    2    9    8    0.000000    0.000000
   -5    1    2    1    9   -0.000026    0.000000
   -5    1    2    2    9   -0.000287    0.000001
   -5    1    2    3    9    0.000866   -0.000001
   -5    1    2    4    9   -0.000864    0.000000
   -5    1    2    5    9    0.000048    0.000000
   -5    1    2    6    9    0.000151   -0.000000
   -5    1    2    7    9   -0.000152    0.000000
   -5    1    2    8    9    0.000000   -0.000000
   -5    1    2    9    9    0.000054    0.000000
   -5    1    3    1    1    0.000394    0.000000
   -5    1    3    2    1   -0.000002    0.000000
   -5    1    3    3    1    0.000002   -0.000000
   -5    1    3    4    1   -0.004400    0.000000
   -5    1    3    5    1   -0.000129    0.000001
   -5    1    3    6    1   -0.000009    0.000000
   -5    1    3    7    1   -0.000000   -0.000001
   -5    1    3    8    1   -0.000226   -0.000000
   -5    1    3    9    1   -0.000001    0.000001
   -5    1    3    1    2    0.000002    0.000000
   -5    1    3    2    2    0.003214   -0.000000
   -5    1    3    3    2   -0.006505   -0.000022
   -5    1    3    4    2    0.000018   -0.000036
   -5    1    3    5    2    0.000000   -0.000001
   -5    1    3    6    2    0.000001    0.000002
   -5    1    3    7    2    0.000471    0.000001
   -5    1    3    8    2    0.000001   -0.000002
   -5    1    3    9    2   -0.000950   -0.000000
   -5    1    3    1    3   -0.000002   -0.000000
   -5    1    3    2    3   -0.006505    0.000022
   -5    1    3    3    3    0.003138   -0.000000
   -5    1    3    4    3   -0.000001    0.000035
   -5    1    3    5    3   -0.000000    0.000001
   -5    1    3    6    3   -0.000000   -0.000002
   -5    1    3    7    3   -0.000950    0.000000
   -5    1    3    8    3   -0.000000    0.000001
   -5    1    3    9    3    0.000469   -0.000001
   -5    1    3    1    4    0.004400    0.000000
   -5    1    3    2    4    0.000018    0.000036
   -5    1    3    3    4   -0.000001   -0.000035
   -5    1    3    4    4   -0.003729    0.000000
   -5    1    3    5    4   -0.000166    0.000001
   -5    1    3    6    4    0.001659    0.000000
   -5    1    3    7    4    0.000000    0.000001
   -5    1    3    8    4   -0.000311   -0.000001
   -5    1    3    9    4   -0.000000   -0.000001
   -5    1    3    1    5   -0.000129   -0.000001
   -5    1    3    2    5   -0.000000   -0.000001
   -5    1    3    3    5    0.000000    0.000001
   -5    1    3    4    5    0.000166    0.000001
   -5    1    3    5    5   -0.000163    0.000000
   -5    1    3    6    5    0.000055    0.000000
   -5    1    3    7    5   -0.000000   -0.000000
   -5    1    3    8    5    0.000068    0.000000
   -5    1    3    9    5    0.000000   -0.000000
   -5    1    3    1    6   -0.000009   -0.000000
   -5    1    3    2    6   -0.000001    0.000002
   -5    1    3    3    6    0.000000   -0.000002
   -5    1    3    4    6   -0.001659    0.000000
   -5    1    3    5    6    0.000055   -0.000000
   -5    1    3    6    6   -0.000145   -0.000000
   -5    1    3    7    6   -0.000000    0.000000
   -5    1    3    8    6    0.000097   -0.000000
   -5    1    3    9    6    0.000000   -0.000000
   -5    1    3    1    7   -0.000000    0.000001
   -5    1    3    2    7   -0.000471    0.000001
   -5    1    3    3    7    0.000950    0.000000
   -5    1    3    4    7   -0.000000    0.000001
   -5    1    3    5    7   -0.000000    0.000000
   -5    1    3    6    7   -0.000000   -0.000000
   -5    1    3    7    7    0.000050   -0.000000
   -5    1    3    8    7   -0.000000   -0.000000
   -5    1    3    9    7   -0.000156   -0.000000
   -5    1    3    1    8   -0.000226    0.000000
   -5    1    3    2    8   -0.000001   -0.000002
   -5    1    3    3    8    0.000000    0.000001
   -5    1    3    4    8    0.000311   -0.000001
   -5    1    3    5    8    0.000068   -0.000000
   -5    1    3    6    8    0.000097    0.000000
   -5    1    3    7    8   -0.000000    0.000000
   -5    1    3    8    8   -0.000083   -0.000000
   -5    1    3    9    8   -0.000000    0.000000
   -5    1    3    1    9   -0.000001   -0.000001
   -5    1    3    2    9    0.000950   -0.000000
   -5    1    3    3    9   -0.000469   -0.000001
   -5    1    3    4    9    0.000000   -0.000001
   -5    1    3    5    9    0.000000    0.000000
   -5    1    3    6    9    0.000000    0.000000
   -5    1    3    7    9   -0.000156    0.000000
   -5    1    3    8    9   -0.000000   -0.000000
   -5    1    3    9    9    0.000050   -0.000000
   -5    2    0    1    1   -0.000305   -0.000000
   -5    2    0    2    1    0.001225   -0.000005
   -5    2    0    3    1    0.000316   -0.000006
   -5    2    0    4    1   -0.001228   -0.000000
   -5    2    0    5    1   -0.000056    0.000000
   -5    2    0    6    1   -0.000112   -0.000000
   -5    2    0    7    1    0.000248   -0.000000
   -5    2    0    8    1    0.000097    0.000000
   -5    2    0    9    1    0.000112   -0.000000
   -5    2    0    1    2   -0.001225   -0.000005
   -5    2    0    2    2    0.003842   -0.000000
   -5    2    0    3    2    0.007573   -0.000031
   -5    2    0    4    2    0.001299    0.000014
   -5    2    0    5    2   -0.000578    0.000001
   -5    2    0    6    2   -0.000582    0.000001
   -5    2    0    7    2    0.000283   -0.000001
   -5    2    0    8    2   -0.000601    0.000002
   -5    2    0    9    2   -0.000671   -0.000001
   -5    2    0    1    3   -0.000316   -0.000006
   -5    2    0    2    3    0.007573    0.000031
   -5    2    0    3    3    0.011426    0.000000
   -5    2    0    4    3   -0.007570    0.000005
   -5    2    0    5    3    0.000267    0.000001
   -5    2    0    6    3   -0.000790    0.000001
   -5    2    0    7    3    0.000380    0.000001
   -5    2    0    8    3   -0.000463    0.000001
   -5    2    0    9    3    0.000791   -0.000000
   -5    2    0    1    4    0.001228   -0.000000
   -5    2    0    2    4    0.001299   -0.000014
   -5    2    0    3    4   -0.007570   -0.000005
   -5    2    0    4    4    0.003831    0.000000
   -5    2    0    5    4   -0.000805   -0.000002
   -5    2    0    6    4   -0.000673   -0.000000
   -5    2    0    7    4   -0.000283   -0.000000
   -5    2    0    8    4   -0.000197    0.000001
   -5    2    0    9    4   -0.000581    0.000001
   -5    2    0    1    5   -0.000056   -0.000000
   -5    2    0    2    5    0.000578    0.000001
   -5    2    0    3    5   -0.000267    0.000001
   -5    2    0    4    5    0.000805   -0.000002
   -5    2    0    5    5    0.000117    0.000000
   -5    2    0    6    5    0.000034    0.000000
   -5    2    0    7    5   -0.000000    0.000000
   -5    2    0    8    5    0.000029    0.000000
   -5    2    0    9    5    0.000016    0.000000
   -5    2    0    1    6   -0.000112    0.000000
   -5    2    0    2    6    0.000582    0.000001
   -5    2    0    3    6    0.000790    0.000001
   -5    2    0    4    6    0.000673   -0.000000
   -5    2    0    5    6    0.000034   -0.000000
   -5    2    0    6    6    0.000078    0.000000
   -5    2    0    7    6    0.000027    0.000000
   -5    2    0    8    6   -0.000002   -0.000000
   -5    2    0    9    6    0.000064   -0.000000
   -5    2    0    1    7    0.000248    0.000000
   -5    2    0    2    7   -0.000283   -0.000001
   -5    2    0    3    7   -0.000380    0.000001
   -5    2    0    4    7    0.000283   -0.000000
   -5    2    0    5    7   -0.000000   -0.000000
   -5    2    0    6    7    0.000027   -0.000000
   -5    2    0    7    7    0.000050   -0.000000
   -5    2    0    8    7    0.000001   -0.000000
   -5    2    0    9    7   -0.000027   -0.000000
   -5    2    0    1    8    0.000097   -0.000000
   -5    2    0    2    8    0.000601    0.000002
   -5    2    0    3    8    0.000463    0.000001
   -5    2    0    4    8    0.000197    0.000001
   -5    2    0    5    8    0.000029   -0.000000
   -5    2    0    6    8   -0.000002    0.000000
   -5    2    0    7    8    0.000001    0.000000
   -5    2    0    8    8    0.000084    0.000000
   -5    2    0    9    8    0.000031    0.000000
   -5    2    0    1    9    0.000112    0.000000
   -5    2    0    2    9    0.000671   -0.000001
   -5    2    0    3    9   -0.000791   -0.000000
   -5    2    0    4    9    0.000581    0.000001
   -5    2    0    5    9    0.000016   -0.000000
   -5    2    0    6    9    0.000064    0.000000
   -5    2    0    7    9   -0.000027    0.000000
   -5    2    0    8    9    0.000031   -0.000000
   -5    2    0    9    9    0.000078   -0.000000
   -5    2    1    1    1    0.001606    0.000000
   -5    2    1    2    1    0.000587   -0.000001
   -5    2    1    3    1   -0.000592   -0.000000
   -5    2    1    4    1   -0.001519   -0.000004
   -5    2    1    5    1    0.000336   -0.000000
   -5    2    1    6    1   -0.000027    0.000000
   -5    2    1    7    1    0.000347    0.000000
   -5    2    1    8    1    0.000575    0.000000
   -5    2    1    9    1   -0.000347   -0.000000
   -5    2    1    1    2   -0.000587   -0.000001
   -5    2    1    2    2    0.002669   -0.000000
   -5    2    1    3    2    0.003018    0.000019
   -5    2    1    4    2    0.006028   -0.000021
   -5    2    1    5    2   -0.000703   -0.000000
   -5    2    1    6    2    0.000864   -0.000000
   -5    2    1    7    2    0.000486   -0.000001
   -5    2    1    8    2   -0.000291    0.000001
   -5    2    1    9    2    0.000511    0.000001
   -5    2    1    1    3    0.000592   -0.000000
   -5    2    1    2    3    0.003018   -0.000019
   -5    2    1    3    3    0.002725    0.000000
   -5    2    1    4    3   -0.006075   -0.000021
   -5    2    1    5    3   -0.000099   -0.000001
   -5    2    1    6    3   -0.000864    0.000001
   -5    2    1    7    3    0.000506    0.000000
   -5    2    1    8    3    0.000752   -0.000001
   -5    2    1    9    3    0.000489    0.000001
   -5    2    1    1    4    0.001519   -0.000004
   -5    2    1    2    4    0.006028    0.000021
   -5    2    1    3    4   -0.006075    0.000021
   -5    2    1    4    4    0.006102   -0.000000
   -5    2    1    5    4    0.000253   -0.000002
   -5    2    1    6    4    0.000287   -0.000001
   -5    2    1    7    4   -0.000199   -0.000001
   -5    2    1    8    4    0.000435   -0.000000
   -5    2    1    9    4    0.000202    0.000001
   -5    2    1    1    5    0.000336    0.000000
   -5    2    1    2    5    0.000703   -0.000000
   -5    2    1    3    5    0.000099   -0.000001
   -5    2    1    4    5   -0.000253   -0.000002
   -5    2    1    5    5    0.000015   -0.000000
   -5    2    1    6    5   -0.000024   -0.000000
   -5    2    1    7    5    0.000010    0.000000
   -5    2    1    8    5   -0.000019   -0.000000
   -5    2    1    9    5   -0.000036   -0.000000
   -5    2    1    1    6   -0.000027   -0.000000
   -5    2    1    2    6   -0.000864   -0.000000
   -5    2    1    3    6    0.000864    0.000001
   -5    2    1    4    6   -0.000287   -0.000001
   -5    2    1    5    6   -0.000024    0.000000
   -5    2    1    6    6    0.000054   -0.000000
   -5    2    1    7    6   -0.000152   -0.000000
   -5    2    1    8    6   -0.000042    0.000000
   -5    2    1    9    6    0.000152    0.000000
   -5    2    1    1    7    0.000347   -0.000000
   -5    2    1    2    7   -0.000486   -0.000001
   -5    2    1    3    7   -0.000506    0.000000
   -5    2    1    4    7    0.000199   -0.000001
   -5    2    1    5    7    0.000010   -0.000000
   -5    2    1    6    7   -0.000152    0.000000
   -5    2    1    7    7   -0.000030    0.000000
   -5    2    1    8    7    0.000046   -0.000000
   -5    2    1    9    7   -0.000093    0.000000
   -5    2    1    1    8    0.000575   -0.000000
   -5    2    1    2    8    0.000291    0.000001
   -5    2    1    3    8   -0.000752   -0.000001
   -5    2    1    4    8   -0.000435   -0.000000
   -5    2    1    5    8   -0.000019    0.000000
   -5    2    1    6    8   -0.000042   -0.000000
   -5    2    1    7    8    0.000046    0.000000
   -5    2    1    8    8   -0.000010   -0.000000
   -5    2    1    9    8   -0.000031   -0.000000
   -5    2    1    1    9   -0.000347    0.000000
   -5    2    1    2    9   -0.000511    0.000001
   -5    2    1    3    9   -0.000489    0.000001
   -5    2    1    4    9   -0.000202    0.000001
   -5    2    1    5    9   -0.000036    0.000000
   -5    2    1    6    9    0.000152   -0.000000
   -5    2    1    7    9   -0.000093   -0.000000
   -5    2    1    8    9   -0.000031    0.000000
   -5    2    1    9    9   -0.000029   -0.000000
   -5    2    2    1    1    0.001603   -0.000000
   -5    2    2    2    1    0.000592    0.000004
   -5    2    2    3    1    0.001518   -0.000000
   -5    2    2    4    1    0.000591   -0.000004
   -5    2    2    5    1    0.000335   -0.000000
   -5    2    2    6    1   -0.000347   -0.000000
   -5    2    2    7    1    0.000026   -0.000000
   -5    2    2    8    1   -0.000576   -0.000000
   -5    2    2    9    1   -0.000349    0.000000
   -5    2    2    1    2   -0.000592    0.000004
   -5    2    2    2    2    0.002707   -0.000000
   -5    2    2    3    2   -0.006070    0.000007
   -5    2    2    4    2   -0.003007   -0.000017
   -5    2    2    5    2   -0.000705   -0.000001
   -5    2    2    6    2   -0.000488    0.000001
   -5    2    2    7    2   -0.000864   -0.000001
   -5    2    2    8    2    0.000290   -0.000001
   -5    2    2    9    2    0.000506    0.000000
   -5    2    2    1    3   -0.001518   -0.000000
   -5    2    2    2    3   -0.006070   -0.000007
   -5    2    2    3    3    0.006110    0.000000
   -5    2    2    4    3   -0.006042    0.000008
   -5    2    2    5    3   -0.000254   -0.000001
   -5    2    2    6    3   -0.000201   -0.000001
   -5    2    2    7    3    0.000288    0.000000
   -5    2    2    8    3    0.000434   -0.000000
   -5    2    2    9    3   -0.000201    0.000001
   -5    2    2    1    4   -0.000591   -0.000004
   -5    2    2    2    4   -0.003007    0.000017
   -5    2    2    3    4   -0.006042   -0.000008
   -5    2    2    4    4    0.002664    0.000000
   -5    2    2    5    4    0.000096   -0.000001
   -5    2    2    6    4    0.000508   -0.000000
   -5    2    2    7    4   -0.000868    0.000001
   -5    2    2    8    4    0.000753   -0.000000
   -5    2    2    9    4   -0.000488   -0.000001
   -5    2    2    1    5    0.000335    0.000000
   -5    2    2    2    5    0.000705   -0.000001
   -5    2    2    3    5    0.000254   -0.000001
   -5    2    2    4    5   -0.000096   -0.000001
   -5    2    2    5    5    0.000015   -0.000000
   -5    2    2    6    5   -0.000010   -0.000000
   -5    2    2    7    5    0.000024    0.000000
   -5    2    2    8    5    0.000019   -0.000000
   -5    2    2    9    5   -0.000035   -0.000000
   -5    2    2    1    6   -0.000347    0.000000
   -5    2    2    2    6    0.000488    0.000001
   -5    2    2    3    6    0.000201   -0.000001
   -5    2    2    4    6   -0.000508   -0.000000
   -5    2    2    5    6   -0.000010    0.000000
   -5    2    2    6    6   -0.000029    0.000000
   -5    2    2    7    6   -0.000152   -0.000000
   -5    2    2    8    6    0.000046    0.000000
   -5    2    2    9    6    0.000093   -0.000000
   -5    2    2    1    7    0.000026    0.000000
   -5    2    2    2    7    0.000864   -0.000001
   -5    2    2    3    7   -0.000288    0.000000
   -5    2    2    4    7    0.000868    0.000001
   -5    2    2    5    7    0.000024   -0.000000
   -5    2    2    6    7   -0.000152    0.000000
   -5    2    2    7    7    0.000054   -0.000000
   -5    2    2    8    7   -0.000042   -0.000000
   -5    2    2    9    7   -0.000152   -0.000000
   -5    2    2    1    8   -0.000576    0.000000
   -5    2    2    2    8   -0.000290   -0.000001
   -5    2    2    3    8   -0.000434   -0.000000
   -5    2    2    4    8   -0.000753   -0.000000
   -5    2    2    5    8    0.000019    0.000000
   -5    2    2    6    8    0.000046   -0.000000
   -5    2    2    7    8   -0.000042    0.000000
   -5    2    2    8    8   -0.000010    0.000000
   -5    2    2    9    8    0.000031    0.000000
   -5    2    2    1    9   -0.000349   -0.000000
   -5    2    2    2    9   -0.000506    0.000000
   -5    2    2    3    9    0.000201    0.000001
   -5    2    2    4    9    0.000488   -0.000001
   -5    2    2    5    9   -0.000035    0.000000
   -5    2    2    6    9    0.000093    0.000000
   -5    2    2    7    9   -0.000152    0.000000
   -5    2    2    8    9    0.000031   -0.000000
   -5    2    2    9    9   -0.000030    0.000000
   -5    2    3    1    1   -0.000303    0.000000
   -5    2    3    2    1    0.001231    0.000004
   -5    2    3    3    1    0.001228   -0.000003
   -5    2    3    4    1   -0.000312   -0.000000
   -5    2    3    5    1   -0.000056    0.000001
   -5    2    3    6    1   -0.000248    0.000000
   -5    2    3    7    1    0.000113    0.000000
   -5    2    3    8    1   -0.000095   -0.000000
   -5    2    3    9    1    0.000112   -0.000000
   -5    2    3    1    2   -0.001231    0.000004
   -5    2    3    2    2    0.003794    0.000000
   -5    2    3    3    2   -0.001250   -0.000044
   -5    2    3    4    2   -0.007556    0.000028
   -5    2    3    5    2   -0.000583   -0.000001
   -5    2    3    6    2   -0.000282    0.000000
   -5    2    3    7    2    0.000580   -0.000002
   -5    2    3    8    2    0.000606   -0.000003
   -5    2    3    9    2   -0.000671   -0.000002
   -5    2    3    1    3   -0.001228   -0.000003
   -5    2    3    2    3   -0.001250    0.000044
   -5    2    3    3    3    0.003832    0.000000
   -5    2    3    4    3   -0.007604   -0.000029
   -5    2    3    5    3    0.000811    0.000002
   -5    2    3    6    3   -0.000284   -0.000000
   -5    2    3    7    3   -0.000671    0.000002
   -5    2    3    8    3   -0.000193    0.000002
   -5    2    3    9    3    0.000582    0.000002
   -5    2    3    1    4    0.000312   -0.000000
   -5    2    3    2    4   -0.007556   -0.000028
   -5    2    3    3    4   -0.007604    0.000029
   -5    2    3    4    4    0.011430   -0.000000
   -5    2    3    5    4   -0.000269   -0.000003
   -5    2    3    6    4    0.000380    0.000000
   -5    2    3    7    4   -0.000791   -0.000000
   -5    2    3    8    4   -0.000469    0.000002
   -5    2    3    9    4   -0.000794   -0.000000
   -5    2    3    1    5   -0.000056   -0.000001
   -5    2    3    2    5    0.000583   -0.000001
   -5    2    3    3    5   -0.000811    0.000002
   -5    2    3    4    5    0.000269   -0.000003
   -5    2    3    5    5    0.000117   -0.000000
   -5    2    3    6    5    0.000001    0.000000
   -5    2    3    7    5   -0.000034    0.000000
   -5    2    3    8    5   -0.000029   -0.000000
   -5    2    3    9    5    0.000016    0.000000
   -5    2    3    1    6   -0.000248   -0.000000
   -5    2    3    2    6    0.000282    0.000000
   -5    2    3    3    6    0.000284   -0.000000
   -5    2    3    4    6   -0.000380    0.000000
   -5    2    3    5    6    0.000001   -0.000000
   -5    2    3    6    6    0.000049   -0.000000
   -5    2    3    7    6    0.000026   -0.000000
   -5    2    3    8    6    0.000001    0.000000
   -5    2    3    9    6    0.000027    0.000000
   -5    2    3    1    7    0.000113   -0.000000
   -5    2    3    2    7   -0.000580   -0.000002
   -5    2    3    3    7    0.000671    0.000002
   -5    2    3    4    7    0.000791   -0.000000
   -5    2    3    5    7   -0.000034   -0.000000
   -5    2    3    6    7    0.000026    0.000000
   -5    2    3    7    7    0.000078    0.000000
   -5    2    3    8    7   -0.000001   -0.000000
   -5    2    3    9    7   -0.000064   -0.000000
   -5    2    3    1    8   -0.000095    0.000000
   -5    2    3    2    8   -0.000606   -0.000003
   -5    2    3    3    8    0.000193    0.000002
   -5    2    3    4    8    0.000469    0.000002
   -5    2    3    5    8   -0.000029    0.000000
   -5    2    3    6    8    0.000001   -0.000000
   -5    2    3    7    8   -0.000001    0.000000
   -5    2    3    8    8    0.000084   -0.000000
   -5    2    3    9    8   -0.000031   -0.000000
   -5    2    3    1    9    0.000112    0.000000
   -5    2    3    2    9    0.000671   -0.000002
   -5    2    3    3    9   -0.000582    0.000002
   -5    2    3    4    9    0.000794   -0.000000
   -5    2    3    5    9    0.000016   -0.000000
   -5    2    3    6    9    0.000027   -0.000000
   -5    2    3    7    9   -0.000064    0.000000
   -5    2    3    8    9   -0.000031    0.000000
   -5    2    3    9    9    0.000079    0.000000
   -5    3   -1    1    1   -0.001330    0.000000
   -5    3   -1    2    1    0.003800   -0.000000
   -5    3   -1    3    1   -0.003798   -0.000001
   -5    3   -1    4    1   -0.003799    0.000001
   -5    3   -1    5    1   -0.000003    0.000000
   -5    3   -1    6    1   -0.000075    0.000000
   -5    3   -1    7    1   -0.000078   -0.000000
   -5    3   -1    8    1   -0.000001    0.000001
   -5    3   -1    9    1    0.000076   -0.000000
   -5    3   -1    1    2   -0.003800   -0.000000
   -5    3   -1    2    2   -0.007424   -0.000000
   -5    3   -1    3    2   -0.005751   -0.000006
   -5    3   -1    4    2   -0.005771    0.000005
   -5    3   -1    5    2    0.000453   -0.000000
   -5    3   -1    6    2   -0.000315    0.000000
   -5    3   -1    7    2   -0.000315    0.000000
   -5    3   -1    8    2   -0.000003   -0.000002
   -5    3   -1    9    2   -0.000258   -0.000000
   -5    3   -1    1    3    0.003798   -0.000001
   -5    3   -1    2    3   -0.005751    0.000006
   -5    3   -1    3    3   -0.007386   -0.000000
   -5    3   -1    4    3    0.005760   -0.000019
   -5    3   -1    5    3    0.000245   -0.000003
   -5    3   -1    6    3    0.000315   -0.000001
   -5    3   -1    7    3   -0.000257    0.000000
   -5    3   -1    8    3   -0.000406   -0.000001
   -5    3   -1    9    3   -0.000314   -0.000002
   -5    3   -1    1    4    0.003799    0.000001
   -5    3   -1    2    4   -0.005771   -0.000005
   -5    3   -1    3    4    0.005760    0.000019
   -5    3   -1    4    4   -0.007406   -0.000000
   -5    3   -1    5    4    0.000237    0.000003
   -5    3   -1    6    4   -0.000258   -0.000000
   -5    3   -1    7    4    0.000313    0.000001
   -5    3   -1    8    4    0.000401   -0.000001
   -5    3   -1    9    4   -0.000316    0.000002
   -5    3   -1    1    5   -0.000003   -0.000000
   -5    3   -1    2    5   -0.000453   -0.000000
   -5    3   -1    3    5   -0.000245   -0.000003
   -5    3   -1    4    5   -0.000237    0.000003
   -5    3   -1    5    5   -0.000192   -0.000000
   -5    3   -1    6    5    0.000007    0.000000
   -5    3   -1    7    5    0.000007   -0.000000
   -5    3   -1    8    5   -0.000000   -0.000000
   -5    3   -1    9    5    0.000014   -0.000000
   -5    3   -1    1    6   -0.000075   -0.000000
   -5    3   -1    2    6    0.000315    0.000000
   -5    3   -1    3    6   -0.000315   -0.000001
   -5    3   -1    4    6    0.000258   -0.000000
   -5    3   -1    5    6    0.000007   -0.000000
   -5    3   -1    6    6    0.000114    0.000000
   -5    3   -1    7    6    0.000022   -0.000000
   -5    3   -1    8    6    0.000012    0.000000
   -5    3   -1    9    6   -0.000022   -0.000000
   -5    3   -1    1    7   -0.000078    0.000000
   -5    3   -1    2    7    0.000315    0.000000
   -5    3   -1    3    7    0.000257    0.000000
   -5    3   -1    4    7   -0.000313    0.000001
   -5    3   -1    5    7    0.000007    0.000000
   -5    3   -1    6    7    0.000022    0.000000
   -5    3   -1    7    7    0.000114   -0.000000
   -5    3   -1    8    7   -0.000012    0.000000
   -5    3   -1    9    7   -0.000022    0.000000
   -5    3   -1    1    8   -0.000001   -0.000001
   -5    3   -1    2    8    0.000003   -0.000002
   -5    3   -1    3    8    0.000406   -0.000001
   -5    3   -1    4    8   -0.000401   -0.000001
   -5    3   -1    5    8   -0.000000    0.000000
   -5    3   -1    6    8    0.000012   -0.000000
   -5    3   -1    7    8   -0.000012   -0.000000
   -5    3   -1    8    8   -0.000192    0.000000
   -5    3   -1    9    8   -0.000000   -0.000000
   -5    3   -1    1    9    0.000076    0.000000
   -5    3   -1    2    9    0.000258   -0.000000
   -5    3   -1    3    9    0.000314   -0.000002
   -5    3   -1    4    9    0.000316    0.000002
   -5    3   -1    5    9    0.000014    0.000000
   -5    3   -1    6    9   -0.000022    0.000000
   -5    3   -1    7    9   -0.000022   -0.000000
   -5    3   -1    8    9   -0.000000    0.000000
   -5    3   -1    9    9    0.000114    0.000000
   -5    3    0    1    1   -0.000302   -0.000000
   -5    3    0    2    1   -0.000321   -0.000000
   -5    3    0    3    1   -0.001227   -0.000003
   -5    3    0    4    1   -0.001229    0.000003
   -5    3    0    5    1    0.000109    0.000000
   -5    3    0    6    1   -0.000113   -0.000000
   -5    3    0    7    1   -0.000112   -0.000000
   -5    3    0    8    1    0.000000   -0.000000
   -5    3    0    9    1   -0.000248   -0.000000
   -5    3    0    1    2    0.000321   -0.000000
   -5    3    0    2    2    0.011428   -0.000000
   -5    3    0    3    2    0.007585   -0.000019
   -5    3    0    4    2    0.007607    0.000020
   -5    3    0    5    2    0.000543    0.000000
   -5    3    0    6    2    0.000789    0.000001
   -5    3    0    7    2    0.000789   -0.000000
   -5    3    0    8    2    0.000003    0.000004
   -5    3    0    9    2    0.000382   -0.000000
   -5    3    0    1    3    0.001227   -0.000003
   -5    3    0    2    3    0.007585    0.000019
   -5    3    0    3    3    0.003802    0.000000
   -5    3    0    4    3   -0.001227    0.000009
   -5    3    0    5    3    0.000236    0.000002
   -5    3    0    6    3    0.000583    0.000002
   -5    3    0    7    3   -0.000672    0.000001
   -5    3    0    8    3    0.000802    0.000001
   -5    3    0    9    3    0.000284   -0.000001
   -5    3    0    1    4    0.001229    0.000003
   -5    3    0    2    4    0.007607   -0.000020
   -5    3    0    3    4   -0.001227   -0.000009
   -5    3    0    4    4    0.003834    0.000000
   -5    3    0    5    4    0.000241   -0.000002
   -5    3    0    6    4   -0.000669   -0.000001
   -5    3    0    7    4    0.000584   -0.000002
   -5    3    0    8    4   -0.000799    0.000001
   -5    3    0    9    4    0.000284    0.000000
   -5    3    0    1    5    0.000109   -0.000000
   -5    3    0    2    5   -0.000543    0.000000
   -5    3    0    3    5   -0.000236    0.000002
   -5    3    0    4    5   -0.000241   -0.000002
   -5    3    0    5    5    0.000068   -0.000000
   -5    3    0    6    5   -0.000019    0.000000
   -5    3    0    7    5   -0.000019   -0.000000
   -5    3    0    8    5   -0.000000    0.000000
   -5    3    0    9    5   -0.000002   -0.000000
   -5    3    0    1    6   -0.000113    0.000000
   -5    3    0    2    6   -0.000789    0.000001
   -5    3    0    3    6   -0.000583    0.000002
   -5    3    0    4    6    0.000669   -0.000001
   -5    3    0    5    6   -0.000019   -0.000000
   -5    3    0    6    6    0.000078   -0.000000
   -5    3    0    7    6   -0.000064   -0.000000
   -5    3    0    8    6    0.000029   -0.000000
   -5    3    0    9    6   -0.000026    0.000000
   -5    3    0    1    7   -0.000112    0.000000
   -5    3    0    2    7   -0.000789   -0.000000
   -5    3    0    3    7    0.000672    0.000001
   -5    3    0    4    7   -0.000584   -0.000002
   -5    3    0    5    7   -0.000019    0.000000
   -5    3    0    6    7   -0.000064    0.000000
   -5    3    0    7    7    0.000079   -0.000000
   -5    3    0    8    7   -0.000030   -0.000000
   -5    3    0    9    7   -0.000027    0.000000
   -5    3    0    1    8    0.000000    0.000000
   -5    3    0    2    8   -0.000003    0.000004
   -5    3    0    3    8   -0.000802    0.000001
   -5    3    0    4    8    0.000799    0.000001
   -5    3    0    5    8   -0.000000   -0.000000
   -5    3    0    6    8    0.000029    0.000000
   -5    3    0    7    8   -0.000030    0.000000
   -5    3    0    8    8    0.000134   -0.000000
   -5    3    0    9    8    0.000000   -0.000000
   -5    3    0    1    9   -0.000248    0.000000
   -5    3    0    2    9   -0.000382   -0.000000
   -5    3    0    3    9   -0.000284   -0.000001
   -5    3    0    4    9   -0.000284    0.000000
   -5    3    0    5    9   -0.000002    0.000000
   -5    3    0    6    9   -0.000026   -0.000000
   -5    3    0    7    9   -0.000027   -0.000000
   -5    3    0    8    9    0.000000    0.000000
   -5    3    0    9    9    0.000049    0.000000
   -5    3    1    1    1    0.000394   -0.000000
   -5    3    1    2    1   -0.004399    0.000000
   -5    3    1    3    1    0.000000    0.000000
   -5    3    1    4    1   -0.000003   -0.000000
   -5    3    1    5    1    0.000261    0.000000
   -5    3    1    6    1    0.000001   -0.000001
   -5    3    1    7    1    0.000001    0.000001
   -5    3    1    8    1   -0.000000    0.000001
   -5    3    1    9    1   -0.000008    0.000000
   -5    3    1    1    2    0.004399    0.000000
   -5    3    1    2    2   -0.003691   -0.000000
   -5    3    1    3    2    0.000022    0.000036
   -5    3    1    4    2   -0.000036   -0.000035
   -5    3    1    5    2    0.000366    0.000000
   -5    3    1    6    2    0.000001    0.000001
   -5    3    1    7    2    0.000000   -0.000001
   -5    3    1    8    2    0.000002    0.000002
   -5    3    1    9    2    0.001656    0.000000
   -5    3    1    1    3   -0.000000    0.000000
   -5    3    1    2    3    0.000022   -0.000036
   -5    3    1    3    3    0.003163   -0.000000
   -5    3    1    4    3   -0.006459   -0.000022
   -5    3    1    5    3   -0.000002    0.000002
   -5    3    1    6    3    0.000469    0.000001
   -5    3    1    7    3   -0.000949   -0.000000
   -5    3    1    8    3    0.000002    0.000000
   -5    3    1    9    3    0.000001    0.000002
   -5    3    1    1    4    0.000003   -0.000000
   -5    3    1    2    4   -0.000036    0.000035
   -5    3    1    3    4   -0.006459    0.000022
   -5    3    1    4    4    0.003112   -0.000000
   -5    3    1    5    4    0.000002   -0.000002
   -5    3    1    6    4   -0.000949    0.000000
   -5    3    1    7    4    0.000467   -0.000001
   -5    3    1    8    4   -0.000000    0.000001
   -5    3    1    9    4    0.000001   -0.000002
   -5    3    1    1    5    0.000261   -0.000000
   -5    3    1    2    5   -0.000366    0.000000
   -5    3    1    3    5    0.000002    0.000002
   -5    3    1    4    5   -0.000002   -0.000002
   -5    3    1    5    5   -0.000043    0.000000
   -5    3    1    6    5   -0.000000   -0.000000
   -5    3    1    7    5    0.000000    0.000000
   -5    3    1    8    5    0.000000    0.000000
   -5    3    1    9    5   -0.000112   -0.000000
   -5    3    1    1    6    0.000001    0.000001
   -5    3    1    2    6   -0.000001    0.000001
   -5    3    1    3    6   -0.000469    0.000001
   -5    3    1    4    6    0.000949    0.000000
   -5    3    1    5    6   -0.000000    0.000000
   -5    3    1    6    6    0.000050    0.000000
   -5    3    1    7    6   -0.000156   -0.000000
   -5    3    1    8    6    0.000000    0.000000
   -5    3    1    9    6   -0.000001   -0.000000
   -5    3    1    1    7    0.000001   -0.000001
   -5    3    1    2    7   -0.000000   -0.000001
   -5    3    1    3    7    0.000949   -0.000000
   -5    3    1    4    7   -0.000467   -0.000001
   -5    3    1    5    7    0.000000   -0.000000
   -5    3    1    6    7   -0.000156    0.000000
   -5    3    1    7    7    0.000050   -0.000000
   -5    3    1    8    7    0.000000    0.000000
   -5    3    1    9    7   -0.000001    0.000000
   -5    3    1    1    8   -0.000000   -0.000001
   -5    3    1    2    8   -0.000002    0.000002
   -5    3    1    3    8   -0.000002    0.000000
   -5    3    1    4    8    0.000000    0.000001
   -5    3    1    5    8    0.000000   -0.000000
   -5    3    1    6    8    0.000000   -0.000000
   -5    3    1    7    8    0.000000   -0.000000
   -5    3    1    8    8   -0.000202    0.000000
   -5    3    1    9    8   -0.000000    0.000000
   -5    3    1    1    9   -0.000008   -0.000000
   -5    3    1    2    9   -0.001656    0.000000
   -5    3    1    3    9   -0.000001    0.000002
   -5    3    1    4    9   -0.000001   -0.000002
   -5    3    1    5    9   -0.000112    0.000000
   -5    3    1    6    9   -0.000001    0.000000
   -5    3    1    7    9   -0.000001   -0.000000
   -5    3    1    8    9   -0.000000   -0.000000
   -5    3    1    9    9   -0.000147   -0.000000
   -5    3    2    1    1   -0.000305    0.000000
   -5    3    2    2    1   -0.000312   -0.000000
   -5    3    2    3    1    0.001234    0.000003
   -5    3    2    4    1    0.001229   -0.000003
   -5    3    2    5    1    0.000111    0.000000
   -5    3    2    6    1    0.000112    0.000000
   -5    3    2    7    1    0.000112   -0.000000
   -5    3    2    8    1   -0.000000    0.000001
   -5    3    2    9    1   -0.000250    0.000000
   -5    3    2    1    2    0.000312   -0.000000
   -5    3    2    2    2    0.011374   -0.000000
   -5    3    2    3    2   -0.007555   -0.000028
   -5    3    2    4    2   -0.007558    0.000029
   -5    3    2    5    2    0.000537    0.000000
   -5    3    2    6    2   -0.000788   -0.000000
   -5    3    2    7    2   -0.000791   -0.000000
   -5    3    2    8    2   -0.000002   -0.000003
   -5    3    2    9    2    0.000379    0.000000
   -5    3    2    1    3   -0.001234    0.000003
   -5    3    2    2    3   -0.007555    0.000028
   -5    3    2    3    3    0.003846   -0.000000
   -5    3    2    4    3   -0.001296   -0.000044
   -5    3    2    5    3   -0.000236    0.000003
   -5    3    2    6    3    0.000581   -0.000002
   -5    3    2    7    3   -0.000672   -0.000002
   -5    3    2    8    3   -0.000799    0.000001
   -5    3    2    9    3   -0.000282    0.000000
   -5    3    2    1    4   -0.001229   -0.000003
   -5    3    2    2    4   -0.007558   -0.000029
   -5    3    2    3    4   -0.001296    0.000044
   -5    3    2    4    4    0.003833   -0.000000
   -5    3    2    5    4   -0.000238   -0.000003
   -5    3    2    6    4   -0.000673    0.000002
   -5    3    2    7    4    0.000580    0.000002
   -5    3    2    8    4    0.000797    0.000001
   -5    3    2    9    4   -0.000284   -0.000000
   -5    3    2    1    5    0.000111   -0.000000
   -5    3    2    2    5   -0.000537    0.000000
   -5    3    2    3    5    0.000236    0.000003
   -5    3    2    4    5    0.000238   -0.000003
   -5    3    2    5    5    0.000068   -0.000000
   -5    3    2    6    5    0.000019   -0.000000
   -5    3    2    7    5    0.000019    0.000000
   -5    3    2    8    5   -0.000000   -0.000000
   -5    3    2    9    5   -0.000002   -0.000000
   -5    3    2    1    6    0.000112   -0.000000
   -5    3    2    2    6    0.000788   -0.000000
   -5    3    2    3    6   -0.000581   -0.000002
   -5    3    2    4    6    0.000673    0.000002
   -5    3    2    5    6    0.000019    0.000000
   -5    3    2    6    6    0.000078    0.000000
   -5    3    2    7    6   -0.000064   -0.000000
   -5    3    2    8    6   -0.000029   -0.000000
   -5    3    2    9    6    0.000027    0.000000
   -5    3    2    1    7    0.000112    0.000000
   -5    3    2    2    7    0.000791   -0.000000
   -5    3    2    3    7    0.000672   -0.000002
   -5    3    2    4    7   -0.000580    0.000002
   -5    3    2    5    7    0.000019   -0.000000
   -5    3    2    6    7   -0.000064    0.000000
   -5    3    2    7    7    0.000078    0.000000
   -5    3    2    8    7    0.000030   -0.000000
   -5    3    2    9    7    0.000027   -0.000000
   -5    3    2    1    8   -0.000000   -0.000001
   -5    3    2    2    8    0.000002   -0.000003
   -5    3    2    3    8    0.000799    0.000001
   -5    3    2    4    8   -0.000797    0.000001
   -5    3    2    5    8   -0.000000    0.000000
   -5    3    2    6    8   -0.000029    0.000000
   -5    3    2    7    8    0.000030    0.000000
   -5    3    2    8    8    0.000134   -0.000000
   -5    3    2    9    8    0.000000    0.000000
   -5    3    2    1    9   -0.000250   -0.000000
   -5    3    2    2    9   -0.000379    0.000000
   -5    3    2    3    9    0.000282    0.000000
   -5    3    2    4    9    0.000284   -0.000000
   -5    3    2    5    9   -0.000002    0.000000
   -5    3    2    6    9    0.000027   -0.000000
   -5    3    2    7    9    0.000027    0.000000
   -5    3    2    8    9    0.000000   -0.000000
   -5    3    2    9    9    0.000050   -0.000000
   -5    3    3    1    1   -0.001325    0.000000
   -5    3    3    2    1    0.003805    0.000000
   -5    3    3    3    1    0.003800    0.000000
   -5    3    3    4    1    0.003799    0.000000
   -5    3    3    5    1   -0.000004   -0.000000
   -5    3    3    6    1    0.000076   -0.000000
   -5    3    3    7    1    0.000076   -0.000000
   -5    3    3    8    1   -0.000000    0.000000
   -5    3    3    9    1    0.000077   -0.000000
   -5    3    3    1    2   -0.003805    0.000000
   -5    3    3    2    2   -0.007415    0.000000
   -5    3    3    3    2    0.005775   -0.000003
   -5    3    3    4    2    0.005775    0.000003
   -5    3    3    5    2    0.000459    0.000000
   -5    3    3    6    2    0.000314   -0.000001
   -5    3    3    7    2    0.000312    0.000001
   -5    3    3    8    2   -0.000001    0.000002
   -5    3    3    9    2   -0.000257    0.000000
   -5    3    3    1    3   -0.003800    0.000000
   -5    3    3    2    3    0.005775    0.000003
   -5    3    3    3    3   -0.007418    0.000000
   -5    3    3    4    3    0.005779   -0.000003
   -5    3    3    5    3   -0.000243   -0.000002
   -5    3    3    6    3    0.000314    0.000001
   -5    3    3    7    3   -0.000260    0.000000
   -5    3    3    8    3    0.000398   -0.000001
   -5    3    3    9    3    0.000315   -0.000001
   -5    3    3    1    4   -0.003799    0.000000
   -5    3    3    2    4    0.005775   -0.000003
   -5    3    3    3    4    0.005779    0.000003
   -5    3    3    4    4   -0.007420    0.000000
   -5    3    3    5    4   -0.000242    0.000002
   -5    3    3    6    4   -0.000260    0.000000
   -5    3    3    7    4    0.000316   -0.000001
   -5    3    3    8    4   -0.000397   -0.000001
   -5    3    3    9    4    0.000313    0.000001
   -5    3    3    1    5   -0.000004    0.000000
   -5    3    3    2    5   -0.000459    0.000000
   -5    3    3    3    5    0.000243   -0.000002
   -5    3    3    4    5    0.000242    0.000002
   -5    3    3    5    5   -0.000191    0.000000
   -5    3    3    6    5   -0.000007    0.000000
   -5    3    3    7    5   -0.000007   -0.000000
   -5    3    3    8    5   -0.000000    0.000000
   -5    3    3    9    5    0.000014    0.000000
   -5    3    3    1    6    0.000076    0.000000
   -5    3    3    2    6   -0.000314   -0.000001
   -5    3    3    3    6   -0.000314    0.000001
   -5    3    3    4    6    0.000260    0.000000
   -5    3    3    5    6   -0.000007   -0.000000
   -5    3    3    6    6    0.000114   -0.000000
   -5    3    3    7    6    0.000023   -0.000000
   -5    3    3    8    6   -0.000013    0.000000
   -5    3    3    9    6    0.000023    0.000000
   -5    3    3    1    7    0.000076    0.000000
   -5    3    3    2    7   -0.000312    0.000001
   -5    3    3    3    7    0.000260    0.000000
   -5    3    3    4    7   -0.000316   -0.000001
   -5    3    3    5    7   -0.000007    0.000000
   -5    3    3    6    7    0.000023    0.000000
   -5    3    3    7    7    0.000114   -0.000000
   -5    3    3    8    7    0.000012    0.000000
   -5    3    3    9    7    0.000022   -0.000000
   -5    3    3    1    8   -0.000000   -0.000000
   -5    3    3    2    8    0.000001    0.000002
   -5    3    3    3    8   -0.000398   -0.000001
   -5    3    3    4    8    0.000397   -0.000001
   -5    3    3    5    8   -0.000000   -0.000000
   -5    3    3    6    8   -0.000013   -0.000000
   -5    3    3    7    8    0.000012   -0.000000
   -5    3    3    8    8   -0.000192    0.000000
   -5    3    3    9    8    0.000000    0.000000
   -5    3    3    1    9    0.000077    0.000000
   -5    3    3    2    9    0.000257    0.000000
   -5    3    3    3    9   -0.000315   -0.000001
   -5    3    3    4    9   -0.000313    0.000001
   -5    3    3    5    9    0.000014   -0.000000
   -5    3    3    6    9    0.000023   -0.000000
   -5    3    3    7    9    0.000022    0.000000
   -5    3    3    8    9    0.000000   -0.000000
   -5    3    3    9    9    0.000114   -0.000000
   -4   -4    4    1    1   -0.001170   -0.000000
   -4   -4    4    2    1   -0.000000    0.000000
   -4   -4    4    3    1   -0.000000    0.000000
   -4   -4    4    4    1   -0.000000    0.000000
   -4   -4    4    5    1    0.000016   -0.000000
   -4   -4    4    6    1   -0.000001    0.000000
   -4   -4    4    7    1   -0.000001    0.000000
   -4   -4    4    8    1    0.000000    0.000000
   -4   -4    4    9    1   -0.000000    0.000000
   -4   -4    4    1    2   -0.000000   -0.000000
   -4   -4    4    2    2    0.005584   -0.000000
   -4   -4    4    3    2   -0.000001   -0.000004
   -4   -4    4    4    2    0.000001    0.000004
   -4   -4    4    5    2    0.000000   -0.000000
   -4   -4    4    6    2    0.000000    0.000000
   -4   -4    4    7    2   -0.000000   -0.000000
   -4   -4    4    8    2   -0.000000    0.000000
   -4   -4    4    9    2   -0.000000    0.000000
   -4   -4    4    1    3   -0.000000   -0.000000
   -4   -4    4    2    3   -0.000001    0.000004
   -4   -4    4    3    3    0.005596   -0.000000
   -4   -4    4    4    3    0.000001   -0.000004
   -4   -4    4    5    3   -0.000000    0.000000
   -4   -4    4    6    3   -0.000000    0.000000
   -4   -4    4    7    3   -0.000000    0.000000
   -4   -4    4    8    3    0.000000   -0.000000
   -4   -4    4    9    3   -0.000000    0.000000
   -4   -4    4    1    4   -0.000000   -0.000000
   -4   -4    4    2    4    0.000001   -0.000004
   -4   -4    4    3    4    0.000001    0.000004
   -4   -4    4    4    4    0.005597   -0.000000
   -4   -4    4    5    4   -0.000000    0.000000
   -4   -4    4    6    4    0.000000    0.000000
   -4   -4    4    7    4   -0.000000    0.000000
   -4   -4    4    8    4   -0.000000    0.000000
   -4   -4    4    9    4   -0.000000   -0.000000
   -4   -4    4    1    5    0.000016    0.000000
   -4   -4    4    2    5    0.000000    0.000000
   -4   -4    4    3    5   -0.000000   -0.000000
   -4   -4    4    4    5   -0.000000   -0.000000
   -4   -4    4    5    5    0.000034   -0.000000
   -4   -4    4    6    5   -0.000000    0.000000
   -4   -4    4    7    5   -0.000001   -0.000000
   -4   -4    4    8    5    0.000000   -0.000000
   -4   -4    4    9    5    0.000001   -0.000000
   -4   -4    4    1    6   -0.000001   -0.000000
   -4   -4    4    2    6    0.000000   -0.000000
   -4   -4    4    3    6   -0.000000   -0.000000
   -4   -4    4    4    6    0.000000   -0.000000
   -4   -4    4    5    6   -0.000000   -0.000000
   -4   -4    4    6    6    0.000086   -0.000000
   -4   -4    4    7    6   -0.000000    0.000000
   -4   -4    4    8    6   -0.000000    0.000000
   -4   -4    4    9    6   -0.000000   -0.000000
   -4   -4    4    1    7   -0.000001   -0.000000
   -4   -4    4    2    7   -0.000000    0.000000
   -4   -4    4    3    7   -0.000000   -0.000000
   -4   -4    4    4    7   -0.000000   -0.000000
   -4   -4    4    5    7   -0.000001    0.000000
   -4   -4    4    6    7   -0.000000   -0.000000
   -4   -4    4    7    7    0.000086   -0.000000
   -4   -4    4    8    7    0.000001    0.000000
   -4   -4    4    9    7   -0.000000    0.000000
   -4   -4    4    1    8    0.000000   -0.000000
   -4   -4    4    2    8   -0.000000   -0.000000
   -4   -4    4    3    8    0.000000    0.000000
   -4   -4    4    4    8   -0.000000   -0.000000
   -4   -4    4    5    8    0.000000    0.000000
   -4   -4    4    6    8   -0.000000   -0.000000
   -4   -4    4    7    8    0.000001   -0.000000
   -4   -4    4    8    8    0.000033   -0.000000
   -4   -4    4    9    8    0.000000    0.000000
   -4   -4    4    1    9   -0.000000   -0.000000
   -4   -4    4    2    9   -0.000000   -0.000000
   -4   -4    4    3    9   -0.000000   -0.000000
   -4   -4    4    4    9   -0.000000    0.000000
   -4   -4    4    5    9    0.000001    0.000000
   -4   -4    4    6    9   -0.000000    0.000000
   -4   -4    4    7    9   -0.000000   -0.000000
   -4   -4    4    8    9    0.000000   -0.000000
   -4   -4    4    9    9    0.000085   -0.000000
   -4   -3    3    1    1   -0.001266   -0.000000
   -4   -3    3    2    1    0.001901    0.000005
   -4   -3    3    3    1    0.000003    0.000001
   -4   -3    3    4    1   -0.001902   -0.000003
   -4   -3    3    5    1    0.000031   -0.000000
   -4   -3    3    6    1   -0.000001    0.000000
   -4   -3    3    7    1   -0.000126    0.000000
   -4   -3    3    8    1   -0.000070   -0.000000
   -4   -3    3    9    1    0.000001   -0.000000
   -4   -3    3    1    2   -0.001901    0.000005
   -4   -3    3    2    2    0.002287    0.000000
   -4   -3    3    3    2   -0.000002    0.000005
   -4   -3    3    4    2   -0.000700    0.000010
   -4   -3    3    5    2   -0.000127    0.000001
   -4   -3    3    6    2   -0.000001    0.000001
   -4   -3    3    7    2   -0.000612   -0.000002
   -4   -3    3    8    2   -0.000194   -0.000003
   -4   -3    3    9    2   -0.000000   -0.000001
   -4   -3    3    1    3   -0.000003    0.000001
   -4   -3    3    2    3   -0.000002   -0.000005
   -4   -3    3    3    3   -0.004727    0.000000
   -4   -3    3    4    3    0.000011    0.000006
   -4   -3    3    5    3   -0.000001    0.000000
   -4   -3    3    6    3   -0.000079    0.000001
   -4   -3    3    7    3    0.000002    0.000000
   -4   -3    3    8    3   -0.000001   -0.000000
   -4   -3    3    9    3    0.000078   -0.000001
   -4   -3    3    1    4    0.001902   -0.000003
   -4   -3    3    2    4   -0.000700   -0.000010
   -4   -3    3    3    4    0.000011   -0.000006
   -4   -3    3    4    4    0.002305   -0.000000
   -4   -3    3    5    4   -0.000234   -0.000000
   -4   -3    3    6    4    0.000001   -0.000001
   -4   -3    3    7    4    0.000614    0.000001
   -4   -3    3    8    4   -0.000013    0.000000
   -4   -3    3    9    4   -0.000001    0.000001
   -4   -3    3    1    5    0.000031    0.000000
   -4   -3    3    2    5    0.000127    0.000001
   -4   -3    3    3    5    0.000001    0.000000
   -4   -3    3    4    5    0.000234   -0.000000
   -4   -3    3    5    5    0.000017    0.000000
   -4   -3    3    6    5    0.000000    0.000000
   -4   -3    3    7    5    0.000043   -0.000000
   -4   -3    3    8    5    0.000011    0.000000
   -4   -3    3    9    5    0.000000    0.000000
   -4   -3    3    1    6   -0.000001   -0.000000
   -4   -3    3    2    6    0.000001    0.000001
   -4   -3    3    3    6    0.000079    0.000001
   -4   -3    3    4    6   -0.000001   -0.000001
   -4   -3    3    5    6    0.000000   -0.000000
   -4   -3    3    6    6    0.000024    0.000000
   -4   -3    3    7    6    0.000000    0.000000
   -4   -3    3    8    6    0.000000   -0.000000
   -4   -3    3    9    6    0.000136    0.000000
   -4   -3    3    1    7   -0.000126   -0.000000
   -4   -3    3    2    7    0.000612   -0.000002
   -4   -3    3    3    7   -0.000002    0.000000
   -4   -3    3    4    7   -0.000614    0.000001
   -4   -3    3    5    7    0.000043    0.000000
   -4   -3    3    6    7    0.000000   -0.000000
   -4   -3    3    7    7   -0.000035    0.000000
   -4   -3    3    8    7   -0.000070    0.000000
   -4   -3    3    9    7   -0.000000    0.000000
   -4   -3    3    1    8   -0.000070    0.000000
   -4   -3    3    2    8    0.000194   -0.000003
   -4   -3    3    3    8    0.000001   -0.000000
   -4   -3    3    4    8    0.000013    0.000000
   -4   -3    3    5    8    0.000011   -0.000000
   -4   -3    3    6    8    0.000000    0.000000
   -4   -3    3    7    8   -0.000070   -0.000000
   -4   -3    3    8    8    0.000008   -0.000000
   -4   -3    3    9    8    0.000000    0.000000
   -4   -3    3    1    9    0.000001    0.000000
   -4   -3    3    2    9    0.000000   -0.000001
   -4   -3    3    3    9   -0.000078   -0.000001
   -4   -3    3    4    9    0.000001    0.000001
   -4   -3    3    5    9    0.000000   -0.000000
   -4   -3    3    6    9    0.000136   -0.000000
   -4   -3    3    7    9   -0.000000   -0.000000
   -4   -3    3    8    9    0.000000   -0.000000
   -4   -3    3    9    9    0.000024    0.000000
   -4   -3    4    1    1   -0.001265   -0.000000
   -4   -3    4    2    1    0.001902    0.000007
   -4   -3    4    3    1    0.001904   -0.000008
   -4   -3    4    4    1    0.000002   -0.000000
   -4   -3    4    5    1    0.000032   -0.000000
   -4   -3    4    6    1    0.000127    0.000000
   -4   -3    4    7    1   -0.000001    0.000000
   -4   -3    4    8    1    0.000070    0.000000
   -4   -3    4    9    1   -0.000000   -0.000000
   -4   -3    4    1    2   -0.001902    0.000007
   -4   -3    4    2    2    0.002266   -0.000000
   -4   -3    4    3    2    0.000711    0.000023
   -4   -3    4    4    2   -0.000003    0.000010
   -4   -3    4    5    2   -0.000126    0.000000
   -4   -3    4    6    2    0.000608    0.000004
   -4   -3    4    7    2   -0.000001    0.000001
   -4   -3    4    8    2    0.000195    0.000002
   -4   -3    4    9    2   -0.000000    0.000001
   -4   -3    4    1    3   -0.001904   -0.000008
   -4   -3    4    2    3    0.000711   -0.000023
   -4   -3    4    3    3    0.002304    0.000000
   -4   -3    4    4    3    0.000001   -0.000010
   -4   -3    4    5    3    0.000235   -0.000002
   -4   -3    4    6    3    0.000612   -0.000004
   -4   -3    4    7    3   -0.000000   -0.000002
   -4   -3    4    8    3   -0.000013   -0.000002
   -4   -3    4    9    3    0.000000   -0.000000
   -4   -3    4    1    4   -0.000002   -0.000000
   -4   -3    4    2    4   -0.000003   -0.000010
   -4   -3    4    3    4    0.000001    0.000010
   -4   -3    4    4    4   -0.004719   -0.000000
   -4   -3    4    5    4   -0.000000    0.000001
   -4   -3    4    6    4   -0.000001    0.000000
   -4   -3    4    7    4   -0.000077    0.000000
   -4   -3    4    8    4    0.000000   -0.000000
   -4   -3    4    9    4   -0.000076   -0.000001
   -4   -3    4    1    5    0.000032    0.000000
   -4   -3    4    2    5    0.000126    0.000000
   -4   -3    4    3    5   -0.000235   -0.000002
   -4   -3    4    4    5    0.000000    0.000001
   -4   -3    4    5    5    0.000017   -0.000000
   -4   -3    4    6    5   -0.000043    0.000000
   -4   -3    4    7    5    0.000000    0.000000
   -4   -3    4    8    5   -0.000011   -0.000000
   -4   -3    4    9    5    0.000000   -0.000000
   -4   -3    4    1    6    0.000127   -0.000000
   -4   -3    4    2    6   -0.000608    0.000004
   -4   -3    4    3    6   -0.000612   -0.000004
   -4   -3    4    4    6    0.000001    0.000000
   -4   -3    4    5    6   -0.000043   -0.000000
   -4   -3    4    6    6   -0.000035    0.000000
   -4   -3    4    7    6   -0.000000   -0.000000
   -4   -3    4    8    6   -0.000070    0.000000
   -4   -3    4    9    6   -0.000000    0.000000
   -4   -3    4    1    7   -0.000001   -0.000000
   -4   -3    4    2    7    0.000001    0.000001
   -4   -3    4    3    7    0.000000   -0.000002
   -4   -3    4    4    7    0.000077    0.000000
   -4   -3    4    5    7    0.000000   -0.000000
   -4   -3    4    6    7   -0.000000    0.000000
   -4   -3    4    7    7    0.000024   -0.000000
   -4   -3    4    8    7   -0.000000   -0.000000
   -4   -3    4    9    7   -0.000136    0.000000
   -4   -3    4    1    8    0.000070   -0.000000
   -4   -3    4    2    8   -0.000195    0.000002
   -4   -3    4    3    8    0.000013   -0.000002
   -4   -3    4    4    8   -0.000000   -0.000000
   -4   -3    4    5    8   -0.000011    0.000000
   -4   -3    4    6    8   -0.000070   -0.000000
   -4   -3    4    7    8   -0.000000    0.000000
   -4   -3    4    8    8    0.000008    0.000000
   -4   -3    4    9    8   -0.000000   -0.000000
   -4   -3    4    1    9   -0.000000    0.000000
   -4   -3    4    2    9    0.000000    0.000001
   -4   -3    4    3    9   -0.000000   -0.000000
   -4   -3    4    4    9    0.000076   -0.000001
   -4   -3    4    5    9    0.000000    0.000000
   -4   -3    4    6    9   -0.000000   -0.000000
[...]
    5   -1   -1    7    1    0.000008    0.000000
    5   -1   -1    8    1    0.000225   -0.000001
    5   -1   -1    9    1    0.000001   -0.000000
    5   -1   -1    1    2    0.000001    0.000002
    5   -1   -1    2    2    0.003153    0.000000
    5   -1   -1    3    2    0.000002   -0.000007
    5   -1   -1    4    2    0.006483   -0.000023
    5   -1   -1    5    2   -0.000002    0.000000
    5   -1   -1    6    2    0.000470    0.000001
    5   -1   -1    7    2   -0.000000    0.000001
    5   -1   -1    8    2   -0.000001    0.000001
    5   -1   -1    9    2    0.000949   -0.000001
    5   -1   -1    1    3    0.004391   -0.000000
    5   -1   -1    2    3    0.000002    0.000007
    5   -1   -1    3    3   -0.003677    0.000000
    5   -1   -1    4    3   -0.000041   -0.000007
    5   -1   -1    5    3   -0.000166   -0.000002
    5   -1   -1    6    3   -0.000001   -0.000000
    5   -1   -1    7    3   -0.001658    0.000000
    5   -1   -1    8    3    0.000309   -0.000001
    5   -1   -1    9    3    0.000000    0.000000
    5   -1   -1    1    4    0.000006   -0.000002
    5   -1   -1    2    4    0.006483    0.000023
    5   -1   -1    3    4   -0.000041    0.000007
    5   -1   -1    4    4    0.003122   -0.000000
    5   -1   -1    5    4   -0.000002    0.000001
    5   -1   -1    6    4    0.000949    0.000000
    5   -1   -1    7    4   -0.000001   -0.000001
    5   -1   -1    8    4    0.000002   -0.000000
    5   -1   -1    9    4    0.000468   -0.000001
    5   -1   -1    1    5   -0.000127    0.000002
    5   -1   -1    2    5    0.000002    0.000000
    5   -1   -1    3    5    0.000166   -0.000002
    5   -1   -1    4    5    0.000002    0.000001
    5   -1   -1    5    5   -0.000163    0.000000
    5   -1   -1    6    5   -0.000000    0.000000
    5   -1   -1    7    5   -0.000055    0.000000
    5   -1   -1    8    5   -0.000068   -0.000000
    5   -1   -1    9    5    0.000000    0.000000
    5   -1   -1    1    6   -0.000001   -0.000000
    5   -1   -1    2    6   -0.000470    0.000001
    5   -1   -1    3    6    0.000001   -0.000000
    5   -1   -1    4    6   -0.000949    0.000000
    5   -1   -1    5    6   -0.000000   -0.000000
    5   -1   -1    6    6    0.000050   -0.000000
    5   -1   -1    7    6   -0.000001    0.000000
    5   -1   -1    8    6   -0.000000   -0.000000
    5   -1   -1    9    6    0.000156    0.000000
    5   -1   -1    1    7    0.000008   -0.000000
    5   -1   -1    2    7    0.000000    0.000001
    5   -1   -1    3    7    0.001658    0.000000
    5   -1   -1    4    7    0.000001   -0.000001
    5   -1   -1    5    7   -0.000055   -0.000000
    5   -1   -1    6    7   -0.000001   -0.000000
    5   -1   -1    7    7   -0.000146   -0.000000
    5   -1   -1    8    7    0.000097   -0.000000
    5   -1   -1    9    7    0.000001    0.000000
    5   -1   -1    1    8    0.000225    0.000001
    5   -1   -1    2    8    0.000001    0.000001
    5   -1   -1    3    8   -0.000309   -0.000001
    5   -1   -1    4    8   -0.000002   -0.000000
    5   -1   -1    5    8   -0.000068    0.000000
    5   -1   -1    6    8   -0.000000    0.000000
    5   -1   -1    7    8    0.000097    0.000000
    5   -1   -1    8    8   -0.000083    0.000000
    5   -1   -1    9    8    0.000000    0.000000
    5   -1   -1    1    9    0.000001    0.000000
    5   -1   -1    2    9   -0.000949   -0.000001
    5   -1   -1    3    9   -0.000000    0.000000
    5   -1   -1    4    9   -0.000468   -0.000001
    5   -1   -1    5    9    0.000000   -0.000000
    5   -1   -1    6    9    0.000156   -0.000000
    5   -1   -1    7    9    0.000001   -0.000000
    5   -1   -1    8    9    0.000000   -0.000000
    5   -1   -1    9    9    0.000050   -0.000000
    5    0   -3    1    1   -0.000304    0.000000
    5    0   -3    2    1    0.001227    0.000003
    5    0   -3    3    1    0.001230   -0.000003
    5    0   -3    4    1    0.000318    0.000000
    5    0   -3    5    1   -0.000056   -0.000000
    5    0   -3    6    1   -0.000247    0.000000
    5    0   -3    7    1   -0.000112    0.000000
    5    0   -3    8    1   -0.000095    0.000000
    5    0   -3    9    1   -0.000112   -0.000000
    5    0   -3    1    2   -0.001227    0.000003
    5    0   -3    2    2    0.003810   -0.000000
    5    0   -3    3    2   -0.001237    0.000009
    5    0   -3    4    2    0.007583    0.000018
    5    0   -3    5    2   -0.000583   -0.000000
    5    0   -3    6    2   -0.000284    0.000001
    5    0   -3    7    2   -0.000583   -0.000002
    5    0   -3    8    2    0.000606    0.000002
    5    0   -3    9    2    0.000671   -0.000001
    5    0   -3    1    3   -0.001230   -0.000003
    5    0   -3    2    3   -0.001237   -0.000009
    5    0   -3    3    3    0.003824   -0.000000
    5    0   -3    4    3    0.007609   -0.000019
    5    0   -3    5    3    0.000811   -0.000002
    5    0   -3    6    3   -0.000284   -0.000000
    5    0   -3    7    3    0.000671    0.000001
    5    0   -3    8    3   -0.000194   -0.000001
    5    0   -3    9    3   -0.000581    0.000002
    5    0   -3    1    4   -0.000318    0.000000
    5    0   -3    2    4    0.007583   -0.000018
    5    0   -3    3    4    0.007609    0.000019
    5    0   -3    4    4    0.011448    0.000000
    5    0   -3    5    4    0.000267   -0.000004
    5    0   -3    6    4   -0.000382    0.000000
    5    0   -3    7    4   -0.000793   -0.000000
    5    0   -3    8    4    0.000469    0.000002
    5    0   -3    9    4   -0.000792    0.000000
    5    0   -3    1    5   -0.000056    0.000000
    5    0   -3    2    5    0.000583   -0.000000
    5    0   -3    3    5   -0.000811   -0.000002
    5    0   -3    4    5   -0.000267   -0.000004
    5    0   -3    5    5    0.000117    0.000000
    5    0   -3    6    5    0.000001   -0.000000
    5    0   -3    7    5    0.000034    0.000000
    5    0   -3    8    5   -0.000029    0.000000
    5    0   -3    9    5   -0.000016    0.000000
    5    0   -3    1    6   -0.000247   -0.000000
    5    0   -3    2    6    0.000284    0.000001
    5    0   -3    3    6    0.000284   -0.000000
    5    0   -3    4    6    0.000382    0.000000
    5    0   -3    5    6    0.000001    0.000000
    5    0   -3    6    6    0.000049   -0.000000
    5    0   -3    7    6   -0.000027   -0.000000
    5    0   -3    8    6    0.000001   -0.000000
    5    0   -3    9    6   -0.000027   -0.000000
    5    0   -3    1    7   -0.000112   -0.000000
    5    0   -3    2    7    0.000583   -0.000002
    5    0   -3    3    7   -0.000671    0.000001
    5    0   -3    4    7    0.000793   -0.000000
    5    0   -3    5    7    0.000034   -0.000000
    5    0   -3    6    7   -0.000027    0.000000
    5    0   -3    7    7    0.000078    0.000000
    5    0   -3    8    7    0.000001    0.000000
    5    0   -3    9    7   -0.000064   -0.000000
    5    0   -3    1    8   -0.000095   -0.000000
    5    0   -3    2    8   -0.000606    0.000002
    5    0   -3    3    8    0.000194   -0.000001
    5    0   -3    4    8   -0.000469    0.000002
    5    0   -3    5    8   -0.000029   -0.000000
    5    0   -3    6    8    0.000001    0.000000
    5    0   -3    7    8    0.000001   -0.000000
    5    0   -3    8    8    0.000084    0.000000
    5    0   -3    9    8    0.000031    0.000000
    5    0   -3    1    9   -0.000112    0.000000
    5    0   -3    2    9   -0.000671   -0.000001
    5    0   -3    3    9    0.000581    0.000002
    5    0   -3    4    9    0.000792    0.000000
    5    0   -3    5    9   -0.000016   -0.000000
    5    0   -3    6    9   -0.000027    0.000000
    5    0   -3    7    9   -0.000064    0.000000
    5    0   -3    8    9    0.000031   -0.000000
    5    0   -3    9    9    0.000079   -0.000000
    5    0   -2    1    1   -0.000300    0.000000
    5    0   -2    2    1    0.001224   -0.000000
    5    0   -2    3    1   -0.000307   -0.000006
    5    0   -2    4    1   -0.001227   -0.000005
    5    0   -2    5    1   -0.000056    0.000000
    5    0   -2    6    1    0.000113    0.000000
    5    0   -2    7    1    0.000248    0.000000
    5    0   -2    8    1    0.000095   -0.000000
    5    0   -2    9    1   -0.000112    0.000000
    5    0   -2    1    2   -0.001224   -0.000000
    5    0   -2    2    2    0.003774    0.000000
    5    0   -2    3    2   -0.007558    0.000004
    5    0   -2    4    2    0.001261    0.000013
    5    0   -2    5    2   -0.000580    0.000000
    5    0   -2    6    2    0.000582    0.000001
    5    0   -2    7    2    0.000282    0.000000
    5    0   -2    8    2   -0.000603    0.000002
    5    0   -2    9    2    0.000672   -0.000000
    5    0   -2    1    3    0.000307   -0.000006
    5    0   -2    2    3   -0.007558   -0.000004
    5    0   -2    3    3    0.011429   -0.000000
    5    0   -2    4    3    0.007597   -0.000030
    5    0   -2    5    3   -0.000268   -0.000001
    5    0   -2    6    3   -0.000790    0.000000
    5    0   -2    7    3   -0.000382    0.000001
    5    0   -2    8    3    0.000471   -0.000001
    5    0   -2    9    3    0.000791    0.000000
    5    0   -2    1    4    0.001227   -0.000005
    5    0   -2    2    4    0.001261   -0.000013
    5    0   -2    3    4    0.007597    0.000030
    5    0   -2    4    4    0.003832   -0.000000
    5    0   -2    5    4   -0.000809   -0.000002
    5    0   -2    6    4    0.000670   -0.000001
    5    0   -2    7    4   -0.000282   -0.000001
    5    0   -2    8    4   -0.000192    0.000000
    5    0   -2    9    4    0.000585    0.000001
    5    0   -2    1    5   -0.000056   -0.000000
    5    0   -2    2    5    0.000580    0.000000
    5    0   -2    3    5    0.000268   -0.000001
    5    0   -2    4    5    0.000809   -0.000002
    5    0   -2    5    5    0.000117   -0.000000
    5    0   -2    6    5   -0.000034    0.000000
    5    0   -2    7    5   -0.000000    0.000000
    5    0   -2    8    5    0.000029    0.000000
    5    0   -2    9    5   -0.000016    0.000000
    5    0   -2    1    6    0.000113   -0.000000
    5    0   -2    2    6   -0.000582    0.000001
    5    0   -2    3    6    0.000790    0.000000
    5    0   -2    4    6   -0.000670   -0.000001
    5    0   -2    5    6   -0.000034   -0.000000
    5    0   -2    6    6    0.000078    0.000000
    5    0   -2    7    6   -0.000026   -0.000000
    5    0   -2    8    6    0.000001   -0.000000
    5    0   -2    9    6    0.000064   -0.000000
    5    0   -2    1    7    0.000248   -0.000000
    5    0   -2    2    7   -0.000282    0.000000
    5    0   -2    3    7    0.000382    0.000001
    5    0   -2    4    7    0.000282   -0.000001
    5    0   -2    5    7   -0.000000   -0.000000
    5    0   -2    6    7   -0.000026    0.000000
    5    0   -2    7    7    0.000050    0.000000
    5    0   -2    8    7    0.000001   -0.000000
    5    0   -2    9    7    0.000027    0.000000
    5    0   -2    1    8    0.000095    0.000000
    5    0   -2    2    8    0.000603    0.000002
    5    0   -2    3    8   -0.000471   -0.000001
    5    0   -2    4    8    0.000192    0.000000
    5    0   -2    5    8    0.000029   -0.000000
    5    0   -2    6    8    0.000001    0.000000
    5    0   -2    7    8    0.000001    0.000000
    5    0   -2    8    8    0.000084    0.000000
    5    0   -2    9    8   -0.000031    0.000000
    5    0   -2    1    9   -0.000112   -0.000000
    5    0   -2    2    9   -0.000672   -0.000000
    5    0   -2    3    9   -0.000791    0.000000
    5    0   -2    4    9   -0.000585    0.000001
    5    0   -2    5    9   -0.000016   -0.000000
    5    0   -2    6    9    0.000064    0.000000
    5    0   -2    7    9    0.000027   -0.000000
    5    0   -2    8    9   -0.000031   -0.000000
    5    0   -2    9    9    0.000079   -0.000000
    5    1   -3    1    1   -0.001328   -0.000000
    5    1   -3    2    1    0.003802    0.000001
    5    1   -3    3    1    0.003803   -0.000001
    5    1   -3    4    1   -0.003797    0.000000
    5    1   -3    5    1   -0.000004    0.000001
    5    1   -3    6    1    0.000077   -0.000000
    5    1   -3    7    1   -0.000075    0.000000
    5    1   -3    8    1    0.000001   -0.000000
    5    1   -3    9    1   -0.000077   -0.000000
    5    1   -3    1    2   -0.003802    0.000001
    5    1   -3    2    2   -0.007409   -0.000000
    5    1   -3    3    2    0.005775   -0.000018
    5    1   -3    4    2   -0.005744    0.000006
    5    1   -3    5    2    0.000460   -0.000000
    5    1   -3    6    2    0.000313    0.000002
    5    1   -3    7    2   -0.000315    0.000001
    5    1   -3    8    2    0.000001   -0.000004
    5    1   -3    9    2    0.000256    0.000000
    5    1   -3    1    3   -0.003803   -0.000001
    5    1   -3    2    3    0.005775    0.000018
    5    1   -3    3    3   -0.007406    0.000000
    5    1   -3    4    3   -0.005777   -0.000005
    5    1   -3    5    3   -0.000242    0.000003
    5    1   -3    6    3    0.000314   -0.000001
    5    1   -3    7    3    0.000258   -0.000000
    5    1   -3    8    3    0.000399    0.000002
    5    1   -3    9    3   -0.000313   -0.000001
    5    1   -3    1    4    0.003797    0.000000
    5    1   -3    2    4   -0.005744   -0.000006
    5    1   -3    3    4   -0.005777    0.000005
    5    1   -3    4    4   -0.007416    0.000000
    5    1   -3    5    4    0.000244    0.000002
    5    1   -3    6    4    0.000258    0.000000
    5    1   -3    7    4    0.000317   -0.000000
    5    1   -3    8    4    0.000398   -0.000001
    5    1   -3    9    4    0.000315   -0.000000
    5    1   -3    1    5   -0.000004   -0.000001
    5    1   -3    2    5   -0.000460   -0.000000
    5    1   -3    3    5    0.000242    0.000003
    5    1   -3    4    5   -0.000244    0.000002
    5    1   -3    5    5   -0.000191   -0.000000
    5    1   -3    6    5   -0.000007   -0.000000
    5    1   -3    7    5    0.000007   -0.000000
    5    1   -3    8    5    0.000000   -0.000000
    5    1   -3    9    5   -0.000014   -0.000000
    5    1   -3    1    6    0.000077    0.000000
    5    1   -3    2    6   -0.000313    0.000002
    5    1   -3    3    6   -0.000314   -0.000001
    5    1   -3    4    6   -0.000258    0.000000
    5    1   -3    5    6   -0.000007    0.000000
    5    1   -3    6    6    0.000114   -0.000000
    5    1   -3    7    6   -0.000023    0.000000
    5    1   -3    8    6   -0.000012   -0.000000
    5    1   -3    9    6   -0.000022   -0.000000
    5    1   -3    1    7   -0.000075   -0.000000
    5    1   -3    2    7    0.000315    0.000001
    5    1   -3    3    7   -0.000258   -0.000000
    5    1   -3    4    7   -0.000317   -0.000000
    5    1   -3    5    7    0.000007    0.000000
    5    1   -3    6    7   -0.000023   -0.000000
    5    1   -3    7    7    0.000115   -0.000000
    5    1   -3    8    7   -0.000012    0.000000
    5    1   -3    9    7    0.000022   -0.000000
    5    1   -3    1    8    0.000001    0.000000
    5    1   -3    2    8   -0.000001   -0.000004
    5    1   -3    3    8   -0.000399    0.000002
    5    1   -3    4    8   -0.000398   -0.000001
    5    1   -3    5    8    0.000000    0.000000
    5    1   -3    6    8   -0.000012    0.000000
    5    1   -3    7    8   -0.000012   -0.000000
    5    1   -3    8    8   -0.000192    0.000000
    5    1   -3    9    8    0.000000    0.000000
    5    1   -3    1    9   -0.000077    0.000000
    5    1   -3    2    9   -0.000256    0.000000
    5    1   -3    3    9    0.000313   -0.000001
    5    1   -3    4    9   -0.000315   -0.000000
    5    1   -3    5    9   -0.000014    0.000000
    5    1   -3    6    9   -0.000022    0.000000
    5    1   -3    7    9    0.000022    0.000000
    5    1   -3    8    9    0.000000   -0.000000
    5    1   -3    9    9    0.000114    0.000000
    6   -2   -2    1    1   -0.005876   -0.000000
    6   -2   -2    2    1   -0.000001    0.000000
    6   -2   -2    3    1    0.000001    0.000000
    6   -2   -2    4    1    0.000002    0.000000
    6   -2   -2    5    1   -0.000015   -0.000000
    6   -2   -2    6    1   -0.000000    0.000000
    6   -2   -2    7    1   -0.000000    0.000000
    6   -2   -2    8    1    0.000000    0.000000
    6   -2   -2    9    1   -0.000000    0.000000
    6   -2   -2    1    2    0.000001    0.000000
    6   -2   -2    2    2   -0.016072   -0.000000
    6   -2   -2    3    2    0.000004   -0.000000
    6   -2   -2    4    2    0.000000    0.000000
    6   -2   -2    5    2   -0.000000    0.000000
    6   -2   -2    6    2    0.000000   -0.000000
    6   -2   -2    7    2   -0.000000    0.000000
    6   -2   -2    8    2    0.000001   -0.000002
    6   -2   -2    9    2   -0.001657    0.000000
    6   -2   -2    1    3   -0.000001    0.000000
    6   -2   -2    2    3    0.000004    0.000000
    6   -2   -2    3    3   -0.016071   -0.000000
    6   -2   -2    4    3   -0.000003   -0.000000
    6   -2   -2    5    3   -0.000002    0.000002
    6   -2   -2    6    3   -0.000000    0.000000
    6   -2   -2    7    3   -0.001657   -0.000000
    6   -2   -2    8    3    0.000001    0.000001
    6   -2   -2    9    3    0.000000   -0.000000
    6   -2   -2    1    4   -0.000002    0.000000
    6   -2   -2    2    4    0.000000   -0.000000
    6   -2   -2    3    4   -0.000003    0.000000
    6   -2   -2    4    4   -0.016067    0.000000
    6   -2   -2    5    4    0.000001   -0.000002
    6   -2   -2    6    4   -0.001657   -0.000000
    6   -2   -2    7    4    0.000000   -0.000000
    6   -2   -2    8    4   -0.000003    0.000001
    6   -2   -2    9    4   -0.000000    0.000000
    6   -2   -2    1    5   -0.000015    0.000000
    6   -2   -2    2    5    0.000000    0.000000
    6   -2   -2    3    5    0.000002    0.000002
    6   -2   -2    4    5   -0.000001   -0.000002
    6   -2   -2    5    5   -0.000061   -0.000000
    6   -2   -2    6    5   -0.000000   -0.000000
    6   -2   -2    7    5   -0.000000    0.000000
    6   -2   -2    8    5    0.000000    0.000000
    6   -2   -2    9    5    0.000000    0.000000
    6   -2   -2    1    6   -0.000000   -0.000000
    6   -2   -2    2    6   -0.000000   -0.000000
    6   -2   -2    3    6    0.000000    0.000000
    6   -2   -2    4    6    0.001657   -0.000000
    6   -2   -2    5    6   -0.000000    0.000000
    6   -2   -2    6    6   -0.000171    0.000000
    6   -2   -2    7    6   -0.000000   -0.000000
    6   -2   -2    8    6   -0.000000   -0.000000
    6   -2   -2    9    6   -0.000000    0.000000
    6   -2   -2    1    7   -0.000000   -0.000000
    6   -2   -2    2    7    0.000000    0.000000
    6   -2   -2    3    7    0.001657   -0.000000
    6   -2   -2    4    7   -0.000000   -0.000000
    6   -2   -2    5    7   -0.000000   -0.000000
    6   -2   -2    6    7   -0.000000    0.000000
    6   -2   -2    7    7   -0.000171   -0.000000
    6   -2   -2    8    7    0.000000   -0.000000
    6   -2   -2    9    7   -0.000000   -0.000000
    6   -2   -2    1    8    0.000000   -0.000000
    6   -2   -2    2    8   -0.000001   -0.000002
    6   -2   -2    3    8   -0.000001    0.000001
    6   -2   -2    4    8    0.000003    0.000001
    6   -2   -2    5    8    0.000000   -0.000000
    6   -2   -2    6    8   -0.000000    0.000000
    6   -2   -2    7    8    0.000000    0.000000
    6   -2   -2    8    8   -0.000061   -0.000000
    6   -2   -2    9    8   -0.000000   -0.000000
    6   -2   -2    1    9   -0.000000   -0.000000
    6   -2   -2    2    9    0.001657    0.000000
    6   -2   -2    3    9   -0.000000   -0.000000
    6   -2   -2    4    9    0.000000    0.000000
    6   -2   -2    5    9    0.000000   -0.000000
    6   -2   -2    6    9   -0.000000   -0.000000
    6   -2   -2    7    9   -0.000000    0.000000
    6   -2   -2    8    9   -0.000000    0.000000
    6   -2   -2    9    9   -0.000171    0.000000
