 vasp.6.3.0 20Jan22 (build Dec 11 2022 14:37:43) complex                        
  
 executed on             LinuxIFC date 2024.05.17  22:40:53
 running on   56 total cores
 distrk:  each k-point on   56 cores,    1 groups
 distr:  one band on NCORE=   1 cores,   56 groups


--------------------------------------------------------------------------------------------------------


 INCAR:
   SYSTEM = Bi2Se3
   EDIFF = 1E-8
   PREC = N
   LSORBIT = .TRUE.
   LORBIT = 11
   ISMEAR = 0
   SIGMA = 0.05
   GGA = PE
   ENCUT = 300.00 eV
   MAGMOM = 3600*0.0
   ISTART = 0
   ICHARG = 2
   NBANDS = 56

 POTCAR:    PAW_PBE Bi 08Apr2002                  
 POTCAR:    PAW_PBE Se 06Sep2000                  
 -----------------------------------------------------------------------------
|                                                                             |
|           W    W    AA    RRRRR   N    N  II  N    N   GGGG   !!!           |
|           W    W   A  A   R    R  NN   N  II  NN   N  G    G  !!!           |
|           W    W  A    A  R    R  N N  N  II  N N  N  G       !!!           |
|           W WW W  AAAAAA  RRRRR   N  N N  II  N  N N  G  GGG   !            |
|           WW  WW  A    A  R   R   N   NN  II  N   NN  G    G                |
|           W    W  A    A  R    R  N    N  II  N    N   GGGG   !!!           |
|                                                                             |
|     For optimal performance we recommend to set                             |
|       NCORE = 2 up to number-of-cores-per-socket                            |
|     NCORE specifies how many cores store one orbital (NPAR=cpu/NCORE).      |
|     This setting can greatly improve the performance of VASP for DFT.       |
|     The default, NCORE=1 might be grossly inefficient on modern             |
|     multi-core architectures or massively parallel machines. Do your        |
|     own testing! More info at https://www.vasp.at/wiki/index.php/NCORE      |
|     Unfortunately you need to use the default for GW and RPA                |
|     calculations (for HF NCORE is supported but not extensively tested      |
|     yet).                                                                   |
|                                                                             |
 -----------------------------------------------------------------------------

 POTCAR:    PAW_PBE Bi 08Apr2002                  
   SHA256 =  d6b6753ed5db3f0e277fb15e6dbb6699c4bc829850a481068e9e7236faeca489 Bi/POTCAR             
   COPYR  = (c) Copyright 08Apr2002 Georg Kresse                                                    
   COPYR  = This file is part of the software VASP. Any use, copying, and all other rights are regul
   COPYR  = If you do not have a valid VASP license, you may not use, copy or distribute this file. 
   VRHFIN =Bi:                                                                                      
   LEXCH  = PE                                                                                      
   EATOM  =   150.8133 eV,   11.0845 Ry                                                             
                                                                                                    
   TITEL  = PAW_PBE Bi 08Apr2002                                                                    
   LULTRA =        F    use ultrasoft PP ?                                                          
   IUNSCR =        1    unscreen: 0-lin 1-nonlin 2-no                                               
   RPACOR =    2.200    partial core radius                                                         
   POMASS =  208.980; ZVAL   =    5.000    mass and valenz                                          
   RCORE  =    3.000    outmost cutoff radius                                                       
   RWIGS  =    3.090; RWIGS  =    1.635    wigner-seitz radius (au A)                               
   ENMAX  =  105.037; ENMIN  =   78.777 eV                                                          
   ICORE  =        3    local potential                                                             
   LCOR   =        T    correct aug charges                                                         
   LPAW   =        T    paw PP                                                                      
   EAUG   =  265.427                                                                                
   DEXC   =    0.000                                                                                
   RMAX   =    3.067    core radius for proj-oper                                                   
   RAUG   =    1.300    factor for augmentation sphere                                              
   RDEP   =    3.012    radius for radial grids                                                     
   RDEPT  =    2.604    core radius for aug-charge                                                  
                                                                                                    
   Atomic configuration                                                                             
   17 entries                                                                                       
     n  l   j            E        occ.                                                              
     1  0  0.50    -90639.6582   2.0000                                                             
     2  0  0.50    -16282.4667   2.0000                                                             
     2  1  1.50    -13922.8287   6.0000                                                             
     3  0  0.50     -3930.4763   2.0000                                                             
     3  1  1.50     -3256.7013   6.0000                                                             
     3  2  2.50     -2581.6169  10.0000                                                             
     4  0  0.50      -902.2614   2.0000                                                             
     4  1  1.50      -681.5915   6.0000                                                             
     4  2  2.50      -429.8249  10.0000                                                             
     4  3  3.50      -152.6004  14.0000                                                             
     5  0  0.50      -157.7156   2.0000                                                             
     5  1  1.50       -95.8054   6.0000                                                             
     5  2  2.50       -27.0806  10.0000                                                             
     6  0  0.50       -14.4732   2.0000                                                             
     6  1  1.50        -4.5702   3.0000                                                             
     6  2  2.50        -2.7212   0.0000                                                             
     5  3  2.50        -2.7212   0.0000                                                             
   Description                                                                                      
     l       E           TYP  RCUT    TYP  RCUT                                                     
     0    -14.4732299     23  3.000                                                                 
     0    -12.2452434     23  3.000                                                                 
     1     -4.5701666     23  3.000                                                                 
     1    -13.6058260     23  3.000                                                                 
     2     -2.7211652     23  3.000                                                                 
     3     -1.3605826      7  3.000                                                                 
  local pseudopotential read in
  partial core-charges read in
  partial kinetic energy density read in
  kinetic energy density of atom read in
  atomic valenz-charges read in
  non local Contribution for L=           0  read in
    real space projection operators read in
  non local Contribution for L=           0  read in
    real space projection operators read in
  non local Contribution for L=           1  read in
    real space projection operators read in
  non local Contribution for L=           1  read in
    real space projection operators read in
  non local Contribution for L=           2  read in
    real space projection operators read in
    PAW grid and wavefunctions read in
 
   number of l-projection  operators is LMAX  =           5
   number of lm-projection operators is LMMAX =          13
 
 POTCAR:    PAW_PBE Se 06Sep2000                  
   SHA256 =  eabb916e6b4c819dc065ce039373bc328651da483898f08fb9e49c498452bf12 Se/POTCAR             
   COPYR  = (c) Copyright 06Sep2000 Georg Kresse                                                    
   COPYR  = This file is part of the software VASP. Any use, copying, and all other rights are regul
   COPYR  = If you do not have a valid VASP license, you may not use, copy or distribute this file. 
   VRHFIN =Se: s2p4                                                                                 
   LEXCH  = PE                                                                                      
   EATOM  =   257.1286 eV,   18.8984 Ry                                                             
                                                                                                    
   TITEL  = PAW_PBE Se 06Sep2000                                                                    
   LULTRA =        F    use ultrasoft PP ?                                                          
   IUNSCR =        1    unscreen: 0-lin 1-nonlin 2-no                                               
   RPACOR =    1.900    partial core radius                                                         
   POMASS =   78.960; ZVAL   =    6.000    mass and valenz                                          
   RCORE  =    2.100    outmost cutoff radius                                                       
   RWIGS  =    2.200; RWIGS  =    1.164    wigner-seitz radius (au A)                               
   ENMAX  =  211.555; ENMIN  =  158.666 eV                                                          
   ICORE  =        3    local potential                                                             
   LCOR   =        T    correct aug charges                                                         
   LPAW   =        T    paw PP                                                                      
   EAUG   =  446.842                                                                                
   DEXC   =    0.000                                                                                
   RMAX   =    2.147    core radius for proj-oper                                                   
   RAUG   =    1.300    factor for augmentation sphere                                              
   RDEP   =    2.177    radius for radial grids                                                     
   RDEPT  =    1.928    core radius for aug-charge                                                  
                                                                                                    
   Atomic configuration                                                                             
   10 entries                                                                                       
     n  l   j            E        occ.                                                              
     1  0  0.50    -12503.4787   2.0000                                                             
     2  0  0.50     -1606.9547   2.0000                                                             
     2  1  1.50     -1413.3140   6.0000                                                             
     3  0  0.50      -213.4885   2.0000                                                             
     3  1  1.50      -152.9538   6.0000                                                             
     3  2  2.50       -53.1221  10.0000                                                             
     4  0  0.50       -17.2865   2.0000                                                             
     4  1  0.50        -6.5110   4.0000                                                             
     4  2  2.50        -6.8029   0.0000                                                             
     4  3  2.50        -6.8029   0.0000                                                             
   Description                                                                                      
     l       E           TYP  RCUT    TYP  RCUT                                                     
     0    -17.2865377     23  2.100                                                                 
     0    -15.3094411     23  2.100                                                                 
     1     -6.5110275     23  2.100                                                                 
     1     -0.0695192     23  2.100                                                                 
     2     -6.8029130     23  2.100                                                                 
     3     -1.3605826      7  2.100                                                                 
  local pseudopotential read in
  partial core-charges read in
  partial kinetic energy density read in
  atomic valenz-charges read in
  non local Contribution for L=           0  read in
    real space projection operators read in
  non local Contribution for L=           0  read in
    real space projection operators read in
  non local Contribution for L=           1  read in
    real space projection operators read in
  non local Contribution for L=           1  read in
    real space projection operators read in
  non local Contribution for L=           2  read in
    real space projection operators read in
    PAW grid and wavefunctions read in
 
   number of l-projection  operators is LMAX  =           5
   number of lm-projection operators is LMMAX =          13
 
  PAW_PBE Bi 08Apr2002                  :
 energy of atom  1       EATOM= -150.8133
 kinetic energy error for atom=    0.0003 (will be added to EATOM!!)
  PAW_PBE Se 06Sep2000                  :
 energy of atom  2       EATOM= -257.1286
 kinetic energy error for atom=    0.0040 (will be added to EATOM!!)
 
 
 POSCAR: Bi2Se3
  positions in direct lattice
  velocities in cartesian coordinates
  No initial velocities read in
 exchange correlation table for  LEXCH =        8
   RHO(1)=    0.500       N(1)  =     2000
   RHO(2)=  100.500       N(2)  =     4000
 


--------------------------------------------------------------------------------------------------------


 ion  position               nearest neighbor table
   1  0.399  0.399  0.697-   5 2.97   5 2.97   5 2.97   3 3.04   3 3.04   3 3.04
   2  0.601  0.601  0.303-   4 2.97   4 2.97   4 2.97   3 3.04   3 3.04   3 3.04
   3  0.000  0.000  0.500-   2 3.04   2 3.04   1 3.04   1 3.04   1 3.04   2 3.04
   4  0.206  0.206  0.118-   2 2.97   2 2.97   2 2.97
   5  0.794  0.794  0.882-   1 2.97   1 2.97   1 2.97
 
  LATTYP: Found a trigonal (rhomboedric) cell.
 ALAT       =     9.8410637246
 COS(alpha) =     0.9115969884
  
  Lattice vectors:
  
 A1 = (   2.0690000000,  -1.1945390000,   9.5466670000)
 A2 = (   0.0000000000,   2.3890750000,   9.5466670000)
 A3 = (  -2.0690000000,  -1.1945390000,   9.5466670000)


Analysis of symmetry for initial positions (statically):
=====================================================================
 Subroutine PRICEL returns:
 Original cell was already a primitive cell.
 

 Routine SETGRP: Setting up the symmetry group for a 
 trigonal (rhombohedral) supercell.


 Subroutine GETGRP returns: Found 12 space group operations
 (whereof  4 operations were pure point group operations)
 out of a pool of 12 trial point group operations.


The static configuration has the point symmetry C_2h.
 The point group associated with its full space group is D_3d.


Analysis of symmetry for dynamics (positions and initial velocities):
=====================================================================
 Subroutine PRICEL returns:
 Original cell was already a primitive cell.
 

 Routine SETGRP: Setting up the symmetry group for a 
 trigonal (rhombohedral) supercell.


 Subroutine GETGRP returns: Found 12 space group operations
 (whereof  4 operations were pure point group operations)
 out of a pool of 12 trial point group operations.


The dynamic configuration has the point symmetry C_2h.
 The point group associated with its full space group is D_3d.


Analysis of structural, dynamic, and magnetic symmetry:
=====================================================================
 Subroutine PRICEL returns:
 Original cell was already a primitive cell.
 

 Routine SETGRP: Setting up the symmetry group for a 
 trigonal (rhombohedral) supercell.


 Subroutine GETGRP returns: Found 12 space group operations
 (whereof  4 operations were pure point group operations)
 out of a pool of 12 trial point group operations.


The overall configuration has the point symmetry C_2h.
 The point group associated with its full space group is D_3d.


 Subroutine INISYM returns: Found 12 space group operations
 (whereof  4 operations are pure point group operations),
 and found     1 'primitive' translations


----------------------------------------------------------------------------------------

                                     Primitive cell                                     

  volume of cell :     141.5675

  direct lattice vectors                    reciprocal lattice vectors
    -2.069000000 -3.583614000  0.000000000    -0.241662639 -0.139523955  0.034916185
     2.069000000 -3.583614000  0.000000000     0.241662639 -0.139523955  0.034916185
     0.000000000  2.389075000  9.546667000     0.000000000  0.000000000  0.104748600

  length of vectors
     4.138000761  4.138000761  9.841063467     0.281223941  0.281223941  0.104748600

  position of ions in fractional coordinates (direct lattice)
     0.399000000  0.399000000  0.697000000
     0.601000000  0.601000000  0.303000000
     1.000000000  1.000000000  0.500000000
     0.206000000  0.206000000  0.118000000
     0.794000000  0.794000000  0.882000000

  ion indices of the primitive-cell ions
   primitive index   ion index
                 1           1
                 2           2
                 3           3
                 4           4
                 5           5

----------------------------------------------------------------------------------------

 
 
 KPOINTS: K-Spacing Value to Generate K-Mesh: 0.03

Automatic generation of k-mesh.
 Grid dimensions read from file:
 generate k-points for:    9    9    3

 Generating k-lattice:

  Cartesian coordinates                     Fractional coordinates (reciprocal lattice)
    -0.026851404 -0.015502662  0.003879576     0.111111111  0.000000000  0.000000000
     0.026851404 -0.015502662  0.003879576     0.000000000  0.111111111  0.000000000
     0.000000000  0.000000000  0.034916200     0.000000000  0.000000000  0.333333333

  Length of vectors
     0.031247105  0.031247105  0.034916200

  Shift w.r.t. Gamma in fractional coordinates (k-lattice)
     0.000000000  0.000000000  0.000000000

 -----------------------------------------------------------------------------
|                                                                             |
|           W    W    AA    RRRRR   N    N  II  N    N   GGGG   !!!           |
|           W    W   A  A   R    R  NN   N  II  NN   N  G    G  !!!           |
|           W    W  A    A  R    R  N N  N  II  N N  N  G       !!!           |
|           W WW W  AAAAAA  RRRRR   N  N N  II  N  N N  G  GGG   !            |
|           WW  WW  A    A  R   R   N   NN  II  N   NN  G    G                |
|           W    W  A    A  R    R  N    N  II  N    N   GGGG   !!!           |
|                                                                             |
|     Your reciprocal lattice and k-lattice belong to different lattice       |
|     classes:                                                                |
|                                                                             |
|        The reciprocal lattice is rhombohedral (trigonal),                   |
|        whereas your k-lattice is base-centered monoclinic.                  |
|                                                                             |
|     Results are often still useful ...                                      |
|                                                                             |
 -----------------------------------------------------------------------------

 WARNING: IBZKPT: internal override: KBLOWUP is changed to .FALSE.
      ... skipping the blow-up phase ...

 
 Subroutine IBZKPT returns following result:
 ===========================================
 
 Found     57 irreducible k-points:
 
 Following reciprocal coordinates:
            Coordinates               Weight
  0.000000  0.000000  0.000000      1.000000
  0.111111  0.000000 -0.000000      4.000000
  0.222222  0.000000 -0.000000      4.000000
  0.333333  0.000000  0.000000      6.000000
  0.444444  0.000000  0.000000      4.000000
  0.111111  0.111111 -0.000000      2.000000
  0.222222  0.111111  0.000000      4.000000
  0.333333  0.111111  0.000000      8.000000
  0.444444  0.111111  0.000000      4.000000
 -0.444444  0.111111  0.000000      4.000000
 -0.333333  0.111111 -0.000000      8.000000
 -0.222222  0.111111 -0.000000      4.000000
 -0.111111  0.111111  0.000000      2.000000
  0.222222  0.222222  0.000000      2.000000
  0.333333  0.222222  0.000000      8.000000
  0.444444  0.222222  0.000000      4.000000
 -0.444444  0.222222 -0.000000      4.000000
 -0.333333  0.222222 -0.000000      8.000000
 -0.222222  0.222222  0.000000      2.000000
  0.333333  0.333333 -0.000000      6.000000
  0.444444  0.333333 -0.000000      8.000000
 -0.444444  0.333333 -0.000000      8.000000
 -0.333333  0.333333  0.000000      6.000000
  0.444444  0.444444 -0.000000      2.000000
 -0.444444  0.444444  0.000000      2.000000
  0.000000  0.000000  0.333333      2.000000
  0.111111  0.000000  0.333333      4.000000
  0.222222  0.000000  0.333333      4.000000
  0.333333  0.000000  0.333333      6.000000
  0.444444  0.000000  0.333333      4.000000
 -0.444444 -0.000000  0.333333      4.000000
 -0.222222 -0.000000  0.333333      4.000000
 -0.111111 -0.000000  0.333333      4.000000
  0.111111  0.111111  0.333333      2.000000
  0.222222  0.111111  0.333333      4.000000
  0.333333  0.111111  0.333333      8.000000
  0.444444  0.111111  0.333333      4.000000
 -0.444444  0.111111  0.333333      4.000000
 -0.222222  0.111111  0.333333      4.000000
 -0.111111  0.111111  0.333333      4.000000
  0.222222  0.222222  0.333333      2.000000
  0.444444  0.222222  0.333333      4.000000
 -0.444444  0.222222  0.333333      4.000000
 -0.222222  0.222222  0.333333      4.000000
 -0.111111  0.222222  0.333333      4.000000
  0.444444  0.333333  0.333333      8.000000
 -0.444444  0.333333  0.333333      8.000000
  0.444444  0.444444  0.333333      2.000000
 -0.444444  0.444444  0.333333      4.000000
 -0.222222  0.444444  0.333333      4.000000
 -0.111111  0.444444  0.333333      4.000000
 -0.444444 -0.444444  0.333333      2.000000
 -0.222222 -0.444444  0.333333      4.000000
 -0.111111 -0.444444  0.333333      4.000000
 -0.222222 -0.222222  0.333333      2.000000
 -0.111111 -0.222222  0.333333      4.000000
 -0.111111 -0.111111  0.333333      2.000000
 
 Following cartesian coordinates:
            Coordinates               Weight
  0.000000  0.000000  0.000000      1.000000
 -0.026851 -0.015503  0.003880      4.000000
 -0.053703 -0.031005  0.007759      4.000000
 -0.080554 -0.046508  0.011639      6.000000
 -0.107406 -0.062011  0.015518      4.000000
 -0.000000 -0.031005  0.007759      2.000000
 -0.026851 -0.046508  0.011639      4.000000
 -0.053703 -0.062011  0.015518      8.000000
 -0.080554 -0.077513  0.019398      4.000000
  0.134257  0.046508 -0.011639      4.000000
  0.107406  0.031005 -0.007759      8.000000
  0.080554  0.015503 -0.003880      4.000000
  0.053703 -0.000000  0.000000      2.000000
  0.000000 -0.062011  0.015518      2.000000
 -0.026851 -0.077513  0.019398      8.000000
 -0.053703 -0.093016  0.023277      4.000000
  0.161108  0.031005 -0.007759      4.000000
  0.134257  0.015503 -0.003880      8.000000
  0.107406  0.000000  0.000000      2.000000
 -0.000000 -0.093016  0.023277      6.000000
 -0.026851 -0.108519  0.027157      8.000000
  0.187960  0.015503 -0.003880      8.000000
  0.161108  0.000000  0.000000      6.000000
  0.000000 -0.124021  0.031037      2.000000
  0.214811  0.000000  0.000000      2.000000
  0.000000  0.000000  0.034916      2.000000
 -0.026851 -0.015503  0.038796      4.000000
 -0.053703 -0.031005  0.042675      4.000000
 -0.080554 -0.046508  0.046555      6.000000
 -0.107406 -0.062011  0.050435      4.000000
  0.107406  0.062011  0.019398      4.000000
  0.053703  0.031005  0.027157      4.000000
  0.026851  0.015503  0.031037      4.000000
 -0.000000 -0.031005  0.042675      2.000000
 -0.026851 -0.046508  0.046555      4.000000
 -0.053703 -0.062011  0.050435      8.000000
 -0.080554 -0.077513  0.054314      4.000000
  0.134257  0.046508  0.023277      4.000000
  0.080554  0.015503  0.031037      4.000000
  0.053703 -0.000000  0.034916      4.000000
  0.000000 -0.062011  0.050435      2.000000
 -0.053703 -0.093016  0.058194      4.000000
  0.161108  0.031005  0.027157      4.000000
  0.107406  0.000000  0.034916      4.000000
  0.080554 -0.015503  0.038796      4.000000
 -0.026851 -0.108519  0.062073      8.000000
  0.187960  0.015503  0.031037      8.000000
  0.000000 -0.124021  0.065953      2.000000
  0.214811  0.000000  0.034916      4.000000
  0.161108 -0.031005  0.042675      4.000000
  0.134257 -0.046508  0.046555      4.000000
 -0.000000  0.124021  0.003880      2.000000
 -0.053703  0.093016  0.011639      4.000000
 -0.080554  0.077513  0.015518      4.000000
 -0.000000  0.062011  0.019398      2.000000
 -0.026851  0.046508  0.023277      4.000000
  0.000000  0.031005  0.027157      2.000000
 


--------------------------------------------------------------------------------------------------------




 Dimension of arrays:
   k-points           NKPTS =     57   k-points in BZ     NKDIM =     57   number of bands    NBANDS=     56
   number of dos      NEDOS =    301   number of ions     NIONS =      5
   non local maximal  LDIM  =      5   non local SUM 2l+1 LMDIM =     13
   total plane-waves  NPLWV =  13608
   max r-space proj   IRMAX =      1   max aug-charges    IRDMAX=   9355
   dimension x,y,z NGX =    18 NGY =   18 NGZ =   42
   dimension x,y,z NGXF=    36 NGYF=   36 NGZF=   84
   support grid    NGXF=    36 NGYF=   36 NGZF=   84
   ions per type =               2   3
   NGX,Y,Z   is equivalent  to a cutoff of   7.23,  7.23,  7.10 a.u.
   NGXF,Y,Z  is equivalent  to a cutoff of  14.46, 14.46, 14.19 a.u.

 SYSTEM =  Bi2Se3                                  
 POSCAR =  Bi2Se3                                  

 Startparameter for this run:
   NWRITE =      2    write-flag & timer
   PREC   = n         normal or accurate (medium, high low for compatibility)
   ISTART =      0    job   : 0-new  1-cont  2-samecut
   ICHARG =      2    charge: 1-file 2-atom 10-const
   ISPIN  =      1    spin polarized calculation?
   LNONCOLLINEAR =      T non collinear calculations
   LSORBIT =      T    spin-orbit coupling
   INIWAV =      1    electr: 0-lowe 1-rand  2-diag
   LASPH  =      F    aspherical Exc in radial PAW
 Electronic Relaxation 1
   ENCUT  =  300.0 eV  22.05 Ry    4.70 a.u.   5.84  5.84 13.90*2*pi/ulx,y,z
   ENINI  =  300.0     initial cutoff
   ENAUG  =  446.8 eV  augmentation charge cutoff
   NELM   =     60;   NELMIN=  2; NELMDL= -5     # of ELM steps 
   EDIFF  = 0.1E-07   stopping-criterion for ELM
   LREAL  =      F    real-space projection
   NLSPLINE    = F    spline interpolate recip. space projectors
   LCOMPAT=      F    compatible to vasp.4.4
   GGA_COMPAT  = T    GGA compatible to vasp.4.4-vasp.4.6
   LMAXPAW     = -100 max onsite density
   LMAXMIX     =    2 max onsite mixed and CHGCAR
   VOSKOWN=      0    Vosko Wilk Nusair interpolation
   ROPT   =    0.00000   0.00000
 Ionic relaxation
   EDIFFG = 0.1E-06   stopping-criterion for IOM
   NSW    =      0    number of steps for IOM
   NBLOCK =      1;   KBLOCK =      1    inner block; outer block 
   IBRION =     -1    ionic relax: 0-MD 1-quasi-New 2-CG
   NFREE  =      0    steps in history (QN), initial steepest desc. (CG)
   ISIF   =      2    stress and relaxation
   IWAVPR =     10    prediction:  0-non 1-charg 2-wave 3-comb
   ISYM   =      2    0-nonsym 1-usesym 2-fastsym
   LCORR  =      T    Harris-Foulkes like correction to forces

   POTIM  = 0.5000    time-step for ionic-motion
   TEIN   =    0.0    initial temperature
   TEBEG  =    0.0;   TEEND  =   0.0 temperature during run
   SMASS  =  -3.00    Nose mass-parameter (am)
   estimated Nose-frequenzy (Omega)   =  0.10E-29 period in steps = 0.13E+47 mass=  -0.391E-27a.u.
   SCALEE = 1.0000    scale energy and forces
   NPACO  =    256;   APACO  = 10.0  distance and # of slots for P.C.
   PSTRESS=    0.0 pullay stress

  Mass of Ions in am
   POMASS = 208.98 78.96
  Ionic Valenz
   ZVAL   =   5.00  6.00
  Atomic Wigner-Seitz radii
   RWIGS  =  -1.00 -1.00
  virtual crystal weights 
   VCA    =   1.00  1.00
   NELECT =      28.0000    total number of electrons
   NUPDOWN=      -1.0000    fix difference up-down

 DOS related values:
   EMIN   =  10.00;   EMAX   =-10.00  energy-range for DOS
   EFERMI =   0.00
   ISMEAR =     0;   SIGMA  =   0.05  broadening in eV -4-tet -1-fermi 0-gaus

 Electronic relaxation 2 (details)
   IALGO  =     38    algorithm
   LDIAG  =      T    sub-space diagonalisation (order eigenvalues)
   LSUBROT=      F    optimize rotation matrix (better conditioning)
   TURBO    =      0    0=normal 1=particle mesh
   IRESTART =      0    0=no restart 2=restart with 2 vectors
   NREBOOT  =      0    no. of reboots
   NMIN     =      0    reboot dimension
   EREF     =   0.00    reference energy to select bands
   IMIX   =      4    mixing-type and parameters
     AMIX     =   0.40;   BMIX     =  1.00
     AMIX_MAG =   1.60;   BMIX_MAG =  1.00
     AMIN     =   0.10
     WC   =   100.;   INIMIX=   1;  MIXPRE=   1;  MAXMIX= -45

 Intra band minimization:
   WEIMIN = 0.0000     energy-eigenvalue tresh-hold
   EBREAK =  0.45E-10  absolut break condition
   DEPER  =   0.30     relativ break condition  

   TIME   =   0.40     timestep for ELM

  volume/ion in A,a.u.               =      28.31       191.07
  Fermi-wavevector in a.u.,A,eV,Ry     =   0.953834  1.802486 12.378583  0.909800
  Thomas-Fermi vector in A             =   2.082526
 
 Write flags
   LWAVE        =      T    write WAVECAR
   LDOWNSAMPLE  =      F    k-point downsampling of WAVECAR
   LCHARG       =      T    write CHGCAR
   LVTOT        =      F    write LOCPOT, total local potential
   LVHAR        =      F    write LOCPOT, Hartree potential only
   LELF         =      F    write electronic localiz. function (ELF)
   LORBIT       =     11    0 simple, 1 ext, 2 COOP (PROOUT), +10 PAW based schemes


 Dipole corrections
   LMONO  =      F    monopole corrections only (constant potential shift)
   LDIPOL =      F    correct potential (dipole corrections)
   IDIPOL =      0    1-x, 2-y, 3-z, 4-all directions 
   EPSILON=  1.0000000 bulk dielectric constant

 Exchange correlation treatment:
   GGA     =    PE    GGA type
   LEXCH   =     8    internal setting for exchange type
   LIBXC   =     F    Libxc                    
   VOSKOWN =     0    Vosko Wilk Nusair interpolation
   LHFCALC =     F    Hartree Fock is set to
   LHFONE  =     F    Hartree Fock one center treatment
   AEXX    =    0.0000 exact exchange contribution

 Linear response parameters
   LEPSILON=     F    determine dielectric tensor
   LRPA    =     F    only Hartree local field effects (RPA)
   LNABLA  =     F    use nabla operator in PAW spheres
   LVEL    =     F    velocity operator in full k-point grid
   CSHIFT  =0.1000    complex shift for real part using Kramers Kronig
   OMEGAMAX=  -1.0    maximum frequency
   DEG_THRESHOLD= 0.2000000E-02 threshold for treating states as degnerate
   RTIME   =   -0.100 relaxation time in fs
  (WPLASMAI=    0.000 imaginary part of plasma frequency in eV, 0.658/RTIME)
   DFIELD  = 0.0000000 0.0000000 0.0000000 field for delta impulse in time
 
  Optional k-point grid parameters
   LKPOINTS_OPT  =     F    use optional k-point grid
   KPOINTS_OPT_MODE=     1    mode for optional k-point grid
 
 Orbital magnetization related:
   ORBITALMAG=     F  switch on orbital magnetization
   LCHIMAG   =     F  perturbation theory with respect to B field
   DQ        =  0.001000  dq finite difference perturbation B field
   LLRAUG    =     F  two centre corrections for induced B field



--------------------------------------------------------------------------------------------------------


 Static calculation
 charge density and potential will be updated during run
 non collinear spin polarized calculation
 Variant of blocked Davidson
 Davidson routine will perform the subspace rotation
 perform sub-space diagonalisation
    after iterative eigenvector-optimisation
 modified Broyden-mixing scheme, WC =      100.0
 initial mixing is a Kerker type mixing with AMIX =  0.4000 and BMIX =      1.0000
 Hartree-type preconditioning will be used
 using additional bands           42
 reciprocal scheme for non local part
 use partial core corrections
 calculate Harris-corrections to forces 
   (improved forces if not selfconsistent)
 use gradient corrections 
 use of overlap-Matrix (Vanderbilt PP)
 Gauss-broadening in eV      SIGMA  =   0.05


--------------------------------------------------------------------------------------------------------


  energy-cutoff  :      300.00
  volume of cell :      141.57
      direct lattice vectors                 reciprocal lattice vectors
    -2.069000000 -3.583614000  0.000000000    -0.241662639 -0.139523955  0.034916185
     2.069000000 -3.583614000  0.000000000     0.241662639 -0.139523955  0.034916185
     0.000000000  2.389075000  9.546667000     0.000000000  0.000000000  0.104748600

  length of vectors
     4.138000761  4.138000761  9.841063467     0.281223941  0.281223941  0.104748600


 
 k-points in units of 2pi/SCALE and weight: K-Spacing Value to Generate K-Mesh: 0.03
   0.00000000  0.00000000  0.00000000       0.004
  -0.02685140 -0.01550266  0.00387958       0.016
  -0.05370281 -0.03100532  0.00775915       0.016
  -0.08055421 -0.04650799  0.01163873       0.025
  -0.10740562 -0.06201065  0.01551830       0.016
   0.00000000 -0.03100532  0.00775915       0.008
  -0.02685140 -0.04650799  0.01163873       0.016
  -0.05370281 -0.06201065  0.01551830       0.033
  -0.08055421 -0.07751331  0.01939788       0.016
   0.13425702  0.04650799 -0.01163873       0.016
   0.10740562  0.03100532 -0.00775915       0.033
   0.08055421  0.01550266 -0.00387958       0.016
   0.05370281  0.00000000  0.00000000       0.008
  -0.00000000 -0.06201065  0.01551830       0.008
  -0.02685140 -0.07751331  0.01939788       0.033
  -0.05370281 -0.09301597  0.02327746       0.016
   0.16110843  0.03100532 -0.00775915       0.016
   0.13425702  0.01550266 -0.00387958       0.033
   0.10740562 -0.00000000  0.00000000       0.008
   0.00000000 -0.09301597  0.02327746       0.025
  -0.02685140 -0.10851863  0.02715703       0.033
   0.18795983  0.01550266 -0.00387958       0.033
   0.16110843  0.00000000 -0.00000000       0.025
  -0.00000000 -0.12402129  0.03103661       0.008
   0.21481123 -0.00000000  0.00000000       0.008
   0.00000000  0.00000000  0.03491620       0.008
  -0.02685140 -0.01550266  0.03879578       0.016
  -0.05370281 -0.03100532  0.04267535       0.016
  -0.08055421 -0.04650799  0.04655493       0.025
  -0.10740562 -0.06201065  0.05043450       0.016
   0.10740562  0.06201065  0.01939790       0.016
   0.05370281  0.03100532  0.02715705       0.016
   0.02685140  0.01550266  0.03103662       0.016
   0.00000000 -0.03100532  0.04267535       0.008
  -0.02685140 -0.04650799  0.04655493       0.016
  -0.05370281 -0.06201065  0.05043450       0.033
  -0.08055421 -0.07751331  0.05431408       0.016
   0.13425702  0.04650799  0.02327747       0.016
   0.08055421  0.01550266  0.03103662       0.016
   0.05370281  0.00000000  0.03491620       0.016
  -0.00000000 -0.06201065  0.05043450       0.008
  -0.05370281 -0.09301597  0.05819366       0.016
   0.16110843  0.03100532  0.02715705       0.016
   0.10740562 -0.00000000  0.03491620       0.016
   0.08055421 -0.01550266  0.03879578       0.016
  -0.02685140 -0.10851863  0.06207323       0.033
   0.18795983  0.01550266  0.03103662       0.033
  -0.00000000 -0.12402129  0.06595281       0.008
   0.21481123 -0.00000000  0.03491620       0.016
   0.16110843 -0.03100532  0.04267535       0.016
   0.13425702 -0.04650799  0.04655493       0.016
   0.00000000  0.12402129  0.00387959       0.008
  -0.05370281  0.09301597  0.01163874       0.016
  -0.08055421  0.07751331  0.01551832       0.016
   0.00000000  0.06201065  0.01939790       0.008
  -0.02685140  0.04650799  0.02327747       0.016
  -0.00000000  0.03100532  0.02715705       0.008
 
 k-points in reciprocal lattice and weights: K-Spacing Value to Generate K-Mesh: 0.03
   0.00000000  0.00000000  0.00000000       0.004
   0.11111111  0.00000000 -0.00000000       0.016
   0.22222222  0.00000000 -0.00000000       0.016
   0.33333333  0.00000000  0.00000000       0.025
   0.44444444  0.00000000  0.00000000       0.016
   0.11111111  0.11111111 -0.00000000       0.008
   0.22222222  0.11111111  0.00000000       0.016
   0.33333333  0.11111111  0.00000000       0.033
   0.44444444  0.11111111  0.00000000       0.016
  -0.44444444  0.11111111  0.00000000       0.016
  -0.33333333  0.11111111 -0.00000000       0.033
  -0.22222222  0.11111111 -0.00000000       0.016
  -0.11111111  0.11111111  0.00000000       0.008
   0.22222222  0.22222222  0.00000000       0.008
   0.33333333  0.22222222  0.00000000       0.033
   0.44444444  0.22222222  0.00000000       0.016
  -0.44444444  0.22222222 -0.00000000       0.016
  -0.33333333  0.22222222 -0.00000000       0.033
  -0.22222222  0.22222222  0.00000000       0.008
   0.33333333  0.33333333 -0.00000000       0.025
   0.44444444  0.33333333 -0.00000000       0.033
  -0.44444444  0.33333333 -0.00000000       0.033
  -0.33333333  0.33333333  0.00000000       0.025
   0.44444444  0.44444444 -0.00000000       0.008
  -0.44444444  0.44444444  0.00000000       0.008
   0.00000000  0.00000000  0.33333333       0.008
   0.11111111  0.00000000  0.33333333       0.016
   0.22222222  0.00000000  0.33333333       0.016
   0.33333333  0.00000000  0.33333333       0.025
   0.44444444  0.00000000  0.33333333       0.016
  -0.44444444 -0.00000000  0.33333333       0.016
  -0.22222222 -0.00000000  0.33333333       0.016
  -0.11111111 -0.00000000  0.33333333       0.016
   0.11111111  0.11111111  0.33333333       0.008
   0.22222222  0.11111111  0.33333333       0.016
   0.33333333  0.11111111  0.33333333       0.033
   0.44444444  0.11111111  0.33333333       0.016
  -0.44444444  0.11111111  0.33333333       0.016
  -0.22222222  0.11111111  0.33333333       0.016
  -0.11111111  0.11111111  0.33333333       0.016
   0.22222222  0.22222222  0.33333333       0.008
   0.44444444  0.22222222  0.33333333       0.016
  -0.44444444  0.22222222  0.33333333       0.016
  -0.22222222  0.22222222  0.33333333       0.016
  -0.11111111  0.22222222  0.33333333       0.016
   0.44444444  0.33333333  0.33333333       0.033
  -0.44444444  0.33333333  0.33333333       0.033
   0.44444444  0.44444444  0.33333333       0.008
  -0.44444444  0.44444444  0.33333333       0.016
  -0.22222222  0.44444444  0.33333333       0.016
  -0.11111111  0.44444444  0.33333333       0.016
  -0.44444444 -0.44444444  0.33333333       0.008
  -0.22222222 -0.44444444  0.33333333       0.016
  -0.11111111 -0.44444444  0.33333333       0.016
  -0.22222222 -0.22222222  0.33333333       0.008
  -0.11111111 -0.22222222  0.33333333       0.016
  -0.11111111 -0.11111111  0.33333333       0.008
 
 position of ions in fractional coordinates (direct lattice) 
   0.39900000  0.39900000  0.69700000
   0.60100000  0.60100000  0.30300000
   0.00000000  0.00000000  0.50000000
   0.20600000  0.20600000  0.11800000
   0.79400000  0.79400000  0.88200000
 
 position of ions in cartesian coordinates  (Angst):
   0.00000000 -1.19453870  6.65402690
   0.00000000 -3.58361430  2.89264010
   0.00000000  1.19453750  4.77333350
   0.00000000 -1.19453812  1.12650671
   0.00000000 -3.58361488  8.42016029
 
 Euler angles ALPHA=     0.0000000  BETA=     0.0000000

 transformation matrix from SAXIS to cartesian coordinates
 ---------------------------------------------------------
     1.0000000 m_x     0.0000000 m_y     0.0000000 m_z
     0.0000000 m_x     1.0000000 m_y     0.0000000 m_z
     0.0000000 m_x     0.0000000 m_y     1.0000000 m_z

 transformation matrix from cartesian coordinates to SAXIS
 ---------------------------------------------------------
     1.0000000 m_x     0.0000000 m_y     0.0000000 m_z
     0.0000000 m_x     1.0000000 m_y     0.0000000 m_z
     0.0000000 m_x     0.0000000 m_y     1.0000000 m_z




--------------------------------------------------------------------------------------------------------


 k-point   1 :   0.0000 0.0000 0.0000  plane waves:    3294
 k-point   2 :   0.1111 0.0000-0.0000  plane waves:    3296
 k-point   3 :   0.2222 0.0000-0.0000  plane waves:    3324
 k-point   4 :   0.3333 0.0000 0.0000  plane waves:    3358
 k-point   5 :   0.4444 0.0000 0.0000  plane waves:    3358
 k-point   6 :   0.1111 0.1111-0.0000  plane waves:    3308
 k-point   7 :   0.2222 0.1111 0.0000  plane waves:    3318
 k-point   8 :   0.3333 0.1111 0.0000  plane waves:    3332
 k-point   9 :   0.4444 0.1111 0.0000  plane waves:    3354
 k-point  10 :  -0.4444 0.1111 0.0000  plane waves:    3336
 k-point  11 :  -0.3333 0.1111-0.0000  plane waves:    3356
 k-point  12 :  -0.2222 0.1111-0.0000  plane waves:    3334
 k-point  13 :  -0.1111 0.1111 0.0000  plane waves:    3304
 k-point  14 :   0.2222 0.2222 0.0000  plane waves:    3324
 k-point  15 :   0.3333 0.2222 0.0000  plane waves:    3338
 k-point  16 :   0.4444 0.2222 0.0000  plane waves:    3360
 k-point  17 :  -0.4444 0.2222-0.0000  plane waves:    3350
 k-point  18 :  -0.3333 0.2222-0.0000  plane waves:    3340
 k-point  19 :  -0.2222 0.2222 0.0000  plane waves:    3360
 k-point  20 :   0.3333 0.3333-0.0000  plane waves:    3364
 k-point  21 :   0.4444 0.3333-0.0000  plane waves:    3342
 k-point  22 :  -0.4444 0.3333-0.0000  plane waves:    3340
 k-point  23 :  -0.3333 0.3333 0.0000  plane waves:    3356
 k-point  24 :   0.4444 0.4444-0.0000  plane waves:    3352
 k-point  25 :  -0.4444 0.4444 0.0000  plane waves:    3356
 k-point  26 :   0.0000 0.0000 0.3333  plane waves:    3360
 k-point  27 :   0.1111 0.0000 0.3333  plane waves:    3324
 k-point  28 :   0.2222 0.0000 0.3333  plane waves:    3320
 k-point  29 :   0.3333 0.0000 0.3333  plane waves:    3338
 k-point  30 :   0.4444 0.0000 0.3333  plane waves:    3368
 k-point  31 :  -0.4444-0.0000 0.3333  plane waves:    3348
 k-point  32 :  -0.2222-0.0000 0.3333  plane waves:    3350
 k-point  33 :  -0.1111-0.0000 0.3333  plane waves:    3318
 k-point  34 :   0.1111 0.1111 0.3333  plane waves:    3322
 k-point  35 :   0.2222 0.1111 0.3333  plane waves:    3344
 k-point  36 :   0.3333 0.1111 0.3333  plane waves:    3336
 k-point  37 :   0.4444 0.1111 0.3333  plane waves:    3342
 k-point  38 :  -0.4444 0.1111 0.3333  plane waves:    3344
 k-point  39 :  -0.2222 0.1111 0.3333  plane waves:    3342
 k-point  40 :  -0.1111 0.1111 0.3333  plane waves:    3318
 k-point  41 :   0.2222 0.2222 0.3333  plane waves:    3316
 k-point  42 :   0.4444 0.2222 0.3333  plane waves:    3352
 k-point  43 :  -0.4444 0.2222 0.3333  plane waves:    3336
 k-point  44 :  -0.2222 0.2222 0.3333  plane waves:    3356
 k-point  45 :  -0.1111 0.2222 0.3333  plane waves:    3344
 k-point  46 :   0.4444 0.3333 0.3333  plane waves:    3354
 k-point  47 :  -0.4444 0.3333 0.3333  plane waves:    3352
 k-point  48 :   0.4444 0.4444 0.3333  plane waves:    3370
 k-point  49 :  -0.4444 0.4444 0.3333  plane waves:    3344
 k-point  50 :  -0.2222 0.4444 0.3333  plane waves:    3340
 k-point  51 :  -0.1111 0.4444 0.3333  plane waves:    3338
 k-point  52 :  -0.4444-0.4444 0.3333  plane waves:    3360
 k-point  53 :  -0.2222-0.4444 0.3333  plane waves:    3354
 k-point  54 :  -0.1111-0.4444 0.3333  plane waves:    3342
 k-point  55 :  -0.2222-0.2222 0.3333  plane waves:    3320
 k-point  56 :  -0.1111-0.2222 0.3333  plane waves:    3328
 k-point  57 :  -0.1111-0.1111 0.3333  plane waves:    3310

 maximum and minimum number of plane-waves per node :      3370     3294

 maximum number of plane-waves:      3370
 maximum index in each direction: 
   IXMAX=    6   IYMAX=    6   IZMAX=   13
   IXMIN=   -6   IYMIN=   -6   IZMIN=  -14


 serial   3D FFT for wavefunctions
 parallel 3D FFT for charge:
    minimum data exchange during FFTs selected (reduces bandwidth)


 total amount of memory used by VASP MPI-rank0    57028. kBytes
=======================================================================

   base      :      30000. kBytes
   nonl-proj :      20720. kBytes
   fftplans  :        309. kBytes
   grid      :       2467. kBytes
   one-center:        162. kBytes
   wavefun   :       3370. kBytes
 
     INWAV:  cpu time      0.0000: real time      0.0000
 Broyden mixing: mesh for mixing (old mesh)
   NGX = 11   NGY = 11   NGZ = 27
  (NGX  = 36   NGY  = 36   NGZ  = 84)
  gives a total of   3267 points

 initial charge density was supplied:
 charge density of overlapping atoms calculated
 number of electron      28.0000000 magnetization       0.0000000      0.0000000      0.0000000
 keeping initial charge density in first step


--------------------------------------------------------------------------------------------------------


 Maximum index for augmentation-charges          277 (set IRDMAX)


--------------------------------------------------------------------------------------------------------


 First call to EWALD:  gamma=   0.340
 Maximum number of real-space cells 4x 4x 2
 Maximum number of reciprocal cells 2x 2x 5

    FEWALD:  cpu time      0.0023: real time      0.0023


--------------------------------------- Iteration      1(   1)  ---------------------------------------


    POTLOK:  cpu time      0.0139: real time      0.0161
    SETDIJ:  cpu time      0.0063: real time      0.0064
     EDDAV:  cpu time      1.0396: real time      1.0401
       DOS:  cpu time      0.0013: real time      0.0014
    --------------------------------------------
      LOOP:  cpu time      1.0610: real time      1.0640

 eigenvalue-minimisations  :  6384
 total energy-change (2. order) : 0.6547898E+02  (-0.8740059E+03)
 number of electron      28.0000000 magnetization       0.0000000      0.0000000      0.0000000
 augmentation part       28.0000000 magnetization       0.0000000      0.0000000      0.0000000

 Free energy of the ion-electron system (eV)
  ---------------------------------------------------
  alpha Z        PSCENC =        39.23162007
  Ewald energy   TEWEN  =     -1056.08405188
  -Hartree energ DENC   =       -84.01209854
  -exchange      EXHF   =         0.00000000
  -V(xc)+E(xc)   XCENC  =      -222.19259930
  PAW double counting   =      1081.08705222     -805.90615131
  entropy T*S    EENTRO =        -0.00218499
  eigenvalues    EBANDS =        40.35761819
  atomic energy  EATOM  =      1072.99977393
  Solvation  Ediel_sol  =         0.00000000
  ---------------------------------------------------
  free energy    TOTEN  =        65.47897839 eV

  energy without entropy =       65.48116338  energy(sigma->0) =       65.48007089


--------------------------------------------------------------------------------------------------------




--------------------------------------- Iteration      1(   2)  ---------------------------------------


     EDDAV:  cpu time      1.9924: real time      1.9945
       DOS:  cpu time      0.0007: real time      0.0007
    --------------------------------------------
      LOOP:  cpu time      1.9931: real time      1.9951

 eigenvalue-minimisations  :  9576
 total energy-change (2. order) :-0.8515472E+02  (-0.8478220E+02)
 number of electron      28.0000000 magnetization       0.0000000      0.0000000      0.0000000
 augmentation part       28.0000000 magnetization       0.0000000      0.0000000      0.0000000

 Free energy of the ion-electron system (eV)
  ---------------------------------------------------
  alpha Z        PSCENC =        39.23162007
  Ewald energy   TEWEN  =     -1056.08405188
  -Hartree energ DENC   =       -84.01209854
  -exchange      EXHF   =         0.00000000
  -V(xc)+E(xc)   XCENC  =      -222.19259930
  PAW double counting   =      1081.08705222     -805.90615131
  entropy T*S    EENTRO =        -0.00008075
  eigenvalues    EBANDS =       -44.79920441
  atomic energy  EATOM  =      1072.99977393
  Solvation  Ediel_sol  =         0.00000000
  ---------------------------------------------------
  free energy    TOTEN  =       -19.67573997 eV

  energy without entropy =      -19.67565922  energy(sigma->0) =      -19.67569960


--------------------------------------------------------------------------------------------------------




--------------------------------------- Iteration      1(   3)  ---------------------------------------


     EDDAV:  cpu time      1.1461: real time      1.1487
       DOS:  cpu time      0.0007: real time      0.0007
    --------------------------------------------
      LOOP:  cpu time      1.1468: real time      1.1494

 eigenvalue-minimisations  :  6720
 total energy-change (2. order) :-0.1803024E+01  (-0.1802965E+01)
 number of electron      28.0000000 magnetization       0.0000000      0.0000000      0.0000000
 augmentation part       28.0000000 magnetization       0.0000000      0.0000000      0.0000000

 Free energy of the ion-electron system (eV)
  ---------------------------------------------------
  alpha Z        PSCENC =        39.23162007
  Ewald energy   TEWEN  =     -1056.08405188
  -Hartree energ DENC   =       -84.01209854
  -exchange      EXHF   =         0.00000000
  -V(xc)+E(xc)   XCENC  =      -222.19259930
  PAW double counting   =      1081.08705222     -805.90615131
  entropy T*S    EENTRO =        -0.00020623
  eigenvalues    EBANDS =       -46.60210336
  atomic energy  EATOM  =      1072.99977393
  Solvation  Ediel_sol  =         0.00000000
  ---------------------------------------------------
  free energy    TOTEN  =       -21.47876440 eV

  energy without entropy =      -21.47855818  energy(sigma->0) =      -21.47866129


--------------------------------------------------------------------------------------------------------




--------------------------------------- Iteration      1(   4)  ---------------------------------------


     EDDAV:  cpu time      3.4915: real time      3.4916
       DOS:  cpu time      0.0007: real time      0.0007
    --------------------------------------------
      LOOP:  cpu time      3.4922: real time      3.4923

 eigenvalue-minimisations  : 12712
 total energy-change (2. order) :-0.9673704E-02  (-0.9673701E-02)
 number of electron      28.0000000 magnetization       0.0000000      0.0000000      0.0000000
 augmentation part       28.0000000 magnetization       0.0000000      0.0000000      0.0000000

 Free energy of the ion-electron system (eV)
  ---------------------------------------------------
  alpha Z        PSCENC =        39.23162007
  Ewald energy   TEWEN  =     -1056.08405188
  -Hartree energ DENC   =       -84.01209854
  -exchange      EXHF   =         0.00000000
  -V(xc)+E(xc)   XCENC  =      -222.19259930
  PAW double counting   =      1081.08705222     -805.90615131
  entropy T*S    EENTRO =        -0.00020680
  eigenvalues    EBANDS =       -46.61177650
  atomic energy  EATOM  =      1072.99977393
  Solvation  Ediel_sol  =         0.00000000
  ---------------------------------------------------
  free energy    TOTEN  =       -21.48843811 eV

  energy without entropy =      -21.48823131  energy(sigma->0) =      -21.48833471


--------------------------------------------------------------------------------------------------------




--------------------------------------- Iteration      1(   5)  ---------------------------------------


     EDDAV:  cpu time      1.3277: real time      1.3291
       DOS:  cpu time      0.0006: real time      0.0006



 total charge

# of ion       s       p       d       tot
------------------------------------------
    1        1.803   1.272   0.118   3.193
    2        1.803   1.272   0.118   3.193
    3        1.494   2.463   0.021   3.979
    4        1.511   2.436   0.020   3.967
    5        1.511   2.436   0.020   3.967
--------------------------------------------------
tot          8.123   9.879   0.298  18.300



 magnetization (x)

# of ion       s       p       d       tot
------------------------------------------
    1        0.001  -0.002   0.000  -0.001
    2       -0.001   0.002  -0.000   0.001
    3        0.000   0.000   0.000   0.000
    4        0.001  -0.003  -0.000  -0.003
    5       -0.001   0.003   0.000   0.003
--------------------------------------------------
tot         -0.000  -0.000   0.000  -0.000



 magnetization (y)

# of ion       s       p       d       tot
------------------------------------------
    1       -0.000   0.001  -0.000   0.000
    2        0.000  -0.001   0.000  -0.000
    3        0.000   0.000   0.000   0.000
    4       -0.000   0.001   0.000   0.001
    5        0.000  -0.001  -0.000  -0.001
--------------------------------------------------
tot          0.000   0.000   0.000   0.000



 magnetization (z)

# of ion       s       p       d       tot
------------------------------------------
    1        0.000  -0.003   0.000  -0.002
    2       -0.000   0.003  -0.000   0.002
    3        0.000  -0.000  -0.000  -0.000
    4        0.001  -0.000  -0.000   0.001
    5       -0.001   0.000   0.000  -0.001
--------------------------------------------------
tot         -0.000  -0.000  -0.000  -0.000
 
    CHARGE:  cpu time      0.0282: real time      0.0285
    MIXING:  cpu time      0.0016: real time      0.0019
    --------------------------------------------
      LOOP:  cpu time      1.3582: real time      1.3601

 eigenvalue-minimisations  :  7280
 total energy-change (2. order) :-0.8553368E-06  (-0.8556828E-06)
 number of electron      28.0000010 magnetization      -0.0000000     -0.0000000     -0.0000000
 augmentation part       -6.5515738 magnetization      -0.0000000     -0.0000000     -0.0000000

 Broyden mixing:
  rms(total) = 0.61339E+00    rms(broyden)= 0.61337E+00
  rms(prec ) = 0.83213E+00
  weight for this iteration     100.00

 Free energy of the ion-electron system (eV)
  ---------------------------------------------------
  alpha Z        PSCENC =        39.23162007
  Ewald energy   TEWEN  =     -1056.08405188
  -Hartree energ DENC   =       -84.01209854
  -exchange      EXHF   =         0.00000000
  -V(xc)+E(xc)   XCENC  =      -222.19259930
  PAW double counting   =      1081.08705222     -805.90615131
  entropy T*S    EENTRO =        -0.00020680
  eigenvalues    EBANDS =       -46.61177735
  atomic energy  EATOM  =      1072.99977393
  Solvation  Ediel_sol  =         0.00000000
  ---------------------------------------------------
  free energy    TOTEN  =       -21.48843896 eV

  energy without entropy =      -21.48823217  energy(sigma->0) =      -21.48833557


--------------------------------------------------------------------------------------------------------




--------------------------------------- Iteration      1(   6)  ---------------------------------------


    POTLOK:  cpu time      0.0099: real time      0.0099
    SETDIJ:  cpu time      0.0046: real time      0.0046
     EDDAV:  cpu time      1.9384: real time      1.9385
       DOS:  cpu time      0.0005: real time      0.0005
    CHARGE:  cpu time      0.0199: real time      0.0199
    MIXING:  cpu time      0.0007: real time      0.0008
    --------------------------------------------
      LOOP:  cpu time      1.9739: real time      1.9742

 eigenvalue-minimisations  :  9128
 total energy-change (2. order) : 0.6116558E+00  (-0.4959802E+00)
 number of electron      28.0000011 magnetization       0.0000000      0.0000000      0.0000000
 augmentation part       -6.5860542 magnetization       0.0000000      0.0000000      0.0000000

 Broyden mixing:
  rms(total) = 0.37550E+00    rms(broyden)= 0.37549E+00
  rms(prec ) = 0.41019E+00
  weight for this iteration     100.00

 eigenvalues of (default mixing * dielectric matrix)
  average eigenvalue GAMMA=   1.2602
  1.2602

 Free energy of the ion-electron system (eV)
  ---------------------------------------------------
  alpha Z        PSCENC =        39.23162007
  Ewald energy   TEWEN  =     -1056.08405188
  -Hartree energ DENC   =       -89.65161304
  -exchange      EXHF   =         0.00000000
  -V(xc)+E(xc)   XCENC  =      -221.72405438
  PAW double counting   =      1211.68380630     -936.57748316
  entropy T*S    EENTRO =        -0.00000000
  eigenvalues    EBANDS =       -40.75478101
  atomic energy  EATOM  =      1072.99977393
  Solvation  Ediel_sol  =         0.00000000
  ---------------------------------------------------
  free energy    TOTEN  =       -20.87678318 eV

  energy without entropy =      -20.87678318  energy(sigma->0) =      -20.87678318


--------------------------------------------------------------------------------------------------------




--------------------------------------- Iteration      1(   7)  ---------------------------------------


    POTLOK:  cpu time      0.0085: real time      0.0085
    SETDIJ:  cpu time      0.0044: real time      0.0044
     EDDAV:  cpu time      1.8316: real time      1.8317
       DOS:  cpu time      0.0005: real time      0.0005
    CHARGE:  cpu time      0.0200: real time      0.0200
    MIXING:  cpu time      0.0003: real time      0.0003
    --------------------------------------------
      LOOP:  cpu time      1.8653: real time      1.8654

 eigenvalue-minimisations  :  9128
 total energy-change (2. order) : 0.1315008E-01  (-0.4272810E-01)
 number of electron      28.0000011 magnetization       0.0000000     -0.0000000      0.0000000
 augmentation part       -6.5872520 magnetization       0.0000000     -0.0000000      0.0000000

 Broyden mixing:
  rms(total) = 0.22907E+00    rms(broyden)= 0.22907E+00
  rms(prec ) = 0.24234E+00
  weight for this iteration     100.00

 eigenvalues of (default mixing * dielectric matrix)
  average eigenvalue GAMMA=   1.5845
  0.7768  2.3922

 Free energy of the ion-electron system (eV)
  ---------------------------------------------------
  alpha Z        PSCENC =        39.23162007
  Ewald energy   TEWEN  =     -1056.08405188
  -Hartree energ DENC   =       -89.94287872
  -exchange      EXHF   =         0.00000000
  -V(xc)+E(xc)   XCENC  =      -221.66504071
  PAW double counting   =      1305.85367235    -1030.80953178
  entropy T*S    EENTRO =        -0.00000001
  eigenvalues    EBANDS =       -40.44719633
  atomic energy  EATOM  =      1072.99977393
  Solvation  Ediel_sol  =         0.00000000
  ---------------------------------------------------
  free energy    TOTEN  =       -20.86363310 eV

  energy without entropy =      -20.86363309  energy(sigma->0) =      -20.86363310


--------------------------------------------------------------------------------------------------------




--------------------------------------- Iteration      1(   8)  ---------------------------------------


    POTLOK:  cpu time      0.0085: real time      0.0085
    SETDIJ:  cpu time      0.0044: real time      0.0044
     EDDAV:  cpu time      2.9281: real time      2.9283
       DOS:  cpu time      0.0005: real time      0.0005
    CHARGE:  cpu time      0.0203: real time      0.0203
    MIXING:  cpu time      0.0003: real time      0.0003
    --------------------------------------------
      LOOP:  cpu time      2.9621: real time      2.9623

 eigenvalue-minimisations  : 11480
 total energy-change (2. order) :-0.3210987E-02  (-0.6479494E-02)
 number of electron      28.0000011 magnetization       0.0000000     -0.0000000      0.0000000
 augmentation part       -6.5980790 magnetization       0.0000000     -0.0000000      0.0000000

 Broyden mixing:
  rms(total) = 0.48290E-01    rms(broyden)= 0.48289E-01
  rms(prec ) = 0.51982E-01
  weight for this iteration     100.00

 eigenvalues of (default mixing * dielectric matrix)
  average eigenvalue GAMMA=   1.3785
  2.4904  0.9901  0.6552

 Free energy of the ion-electron system (eV)
  ---------------------------------------------------
  alpha Z        PSCENC =        39.23162007
  Ewald energy   TEWEN  =     -1056.08405188
  -Hartree energ DENC   =       -90.55477082
  -exchange      EXHF   =         0.00000000
  -V(xc)+E(xc)   XCENC  =      -221.56338545
  PAW double counting   =      1434.47447783    -1159.48401318
  entropy T*S    EENTRO =        -0.00000002
  eigenvalues    EBANDS =       -39.88649456
  atomic energy  EATOM  =      1072.99977393
  Solvation  Ediel_sol  =         0.00000000
  ---------------------------------------------------
  free energy    TOTEN  =       -20.86684409 eV

  energy without entropy =      -20.86684407  energy(sigma->0) =      -20.86684408


--------------------------------------------------------------------------------------------------------




--------------------------------------- Iteration      1(   9)  ---------------------------------------


    POTLOK:  cpu time      0.0095: real time      0.0111
    SETDIJ:  cpu time      0.0045: real time      0.0045
     EDDAV:  cpu time      1.9369: real time      1.9370
       DOS:  cpu time      0.0005: real time      0.0005
    CHARGE:  cpu time      0.0199: real time      0.0199
    MIXING:  cpu time      0.0003: real time      0.0003
    --------------------------------------------
      LOOP:  cpu time      1.9716: real time      1.9733

 eigenvalue-minimisations  :  8960
 total energy-change (2. order) :-0.6317221E-03  (-0.5202287E-03)
 number of electron      28.0000011 magnetization       0.0000000     -0.0000000      0.0000000
 augmentation part       -6.6007539 magnetization       0.0000000     -0.0000000      0.0000000

 Broyden mixing:
  rms(total) = 0.17965E-01    rms(broyden)= 0.17965E-01
  rms(prec ) = 0.19273E-01
  weight for this iteration     100.00

 eigenvalues of (default mixing * dielectric matrix)
  average eigenvalue GAMMA=   1.2582
  2.4226  1.1745  0.8021  0.6335

 Free energy of the ion-electron system (eV)
  ---------------------------------------------------
  alpha Z        PSCENC =        39.23162007
  Ewald energy   TEWEN  =     -1056.08405188
  -Hartree energ DENC   =       -90.48260495
  -exchange      EXHF   =         0.00000000
  -V(xc)+E(xc)   XCENC  =      -221.56068483
  PAW double counting   =      1456.70638420    -1181.72029829
  entropy T*S    EENTRO =        -0.00000002
  eigenvalues    EBANDS =       -39.95761403
  atomic energy  EATOM  =      1072.99977393
  Solvation  Ediel_sol  =         0.00000000
  ---------------------------------------------------
  free energy    TOTEN  =       -20.86747581 eV

  energy without entropy =      -20.86747579  energy(sigma->0) =      -20.86747580


--------------------------------------------------------------------------------------------------------




--------------------------------------- Iteration      1(  10)  ---------------------------------------


    POTLOK:  cpu time      0.0085: real time      0.0085
    SETDIJ:  cpu time      0.0044: real time      0.0044
     EDDAV:  cpu time      3.0945: real time      3.0947
       DOS:  cpu time      0.0005: real time      0.0005



 total charge

# of ion       s       p       d       tot
------------------------------------------
    1        1.812   1.539   0.132   3.482
    2        1.812   1.539   0.132   3.482
    3        1.480   2.315   0.025   3.819
    4        1.501   2.199   0.021   3.722
    5        1.501   2.199   0.021   3.722
--------------------------------------------------
tot          8.106   9.791   0.331  18.227



 magnetization (x)

# of ion       s       p       d       tot
------------------------------------------
    1        0.001  -0.003   0.000  -0.001
    2       -0.001   0.003  -0.000   0.001
    3        0.000   0.000   0.000   0.000
    4        0.001  -0.004  -0.000  -0.003
    5       -0.001   0.004   0.000   0.003
--------------------------------------------------
tot         -0.000   0.000  -0.000   0.000



 magnetization (y)

# of ion       s       p       d       tot
------------------------------------------
    1       -0.000   0.001  -0.000   0.000
    2        0.000  -0.001   0.000  -0.000
    3        0.000  -0.000  -0.000  -0.000
    4       -0.000   0.001   0.000   0.001
    5        0.000  -0.001  -0.000  -0.001
--------------------------------------------------
tot          0.000  -0.000   0.000  -0.000



 magnetization (z)

# of ion       s       p       d       tot
------------------------------------------
    1        0.000  -0.004   0.000  -0.004
    2       -0.000   0.004  -0.000   0.004
    3        0.000  -0.000   0.000   0.000
    4        0.002  -0.000  -0.000   0.002
    5       -0.002   0.000   0.000  -0.002
--------------------------------------------------
tot          0.000   0.000   0.000   0.000
 
    CHARGE:  cpu time      0.0271: real time      0.0271
    MIXING:  cpu time      0.0003: real time      0.0003
    --------------------------------------------
      LOOP:  cpu time      3.1353: real time      3.1354

 eigenvalue-minimisations  : 11760
 total energy-change (2. order) :-0.1281673E-03  (-0.3011412E-04)
 number of electron      28.0000011 magnetization      -0.0000000     -0.0000000     -0.0000000
 augmentation part       -6.6004104 magnetization      -0.0000000     -0.0000000     -0.0000000

 Broyden mixing:
  rms(total) = 0.76807E-02    rms(broyden)= 0.76807E-02
  rms(prec ) = 0.89812E-02
  weight for this iteration     100.00

 eigenvalues of (default mixing * dielectric matrix)
  average eigenvalue GAMMA=   1.3665
  2.4118  1.8366  1.1719  0.7854  0.6268

 Free energy of the ion-electron system (eV)
  ---------------------------------------------------
  alpha Z        PSCENC =        39.23162007
  Ewald energy   TEWEN  =     -1056.08405188
  -Hartree energ DENC   =       -90.48521799
  -exchange      EXHF   =         0.00000000
  -V(xc)+E(xc)   XCENC  =      -221.56245338
  PAW double counting   =      1455.93096201    -1180.94153292
  entropy T*S    EENTRO =        -0.00000002
  eigenvalues    EBANDS =       -39.95670379
  atomic energy  EATOM  =      1072.99977393
  Solvation  Ediel_sol  =         0.00000000
  ---------------------------------------------------
  free energy    TOTEN  =       -20.86760398 eV

  energy without entropy =      -20.86760396  energy(sigma->0) =      -20.86760397


--------------------------------------------------------------------------------------------------------




--------------------------------------- Iteration      1(  11)  ---------------------------------------


    POTLOK:  cpu time      0.0085: real time      0.0085
    SETDIJ:  cpu time      0.0045: real time      0.0045
     EDDAV:  cpu time      1.9129: real time      1.9130
       DOS:  cpu time      0.0005: real time      0.0005
    CHARGE:  cpu time      0.0198: real time      0.0198
    MIXING:  cpu time      0.0003: real time      0.0003
    --------------------------------------------
      LOOP:  cpu time      1.9465: real time      1.9466

 eigenvalue-minimisations  :  8792
 total energy-change (2. order) :-0.1305661E-03  (-0.1708250E-04)
 number of electron      28.0000011 magnetization      -0.0000000     -0.0000000     -0.0000000
 augmentation part       -6.6000854 magnetization      -0.0000000     -0.0000000     -0.0000000

 Broyden mixing:
  rms(total) = 0.25089E-02    rms(broyden)= 0.25089E-02
  rms(prec ) = 0.30506E-02
  weight for this iteration     100.00

 eigenvalues of (default mixing * dielectric matrix)
  average eigenvalue GAMMA=   1.4197
  2.5198  2.5198  1.1723  0.8668  0.8136  0.6261

 Free energy of the ion-electron system (eV)
  ---------------------------------------------------
  alpha Z        PSCENC =        39.23162007
  Ewald energy   TEWEN  =     -1056.08405188
  -Hartree energ DENC   =       -90.53207972
  -exchange      EXHF   =         0.00000000
  -V(xc)+E(xc)   XCENC  =      -221.56316756
  PAW double counting   =      1452.47690372    -1177.48109147
  entropy T*S    EENTRO =        -0.00000002
  eigenvalues    EBANDS =       -39.91564161
  atomic energy  EATOM  =      1072.99977393
  Solvation  Ediel_sol  =         0.00000000
  ---------------------------------------------------
  free energy    TOTEN  =       -20.86773455 eV

  energy without entropy =      -20.86773453  energy(sigma->0) =      -20.86773454


--------------------------------------------------------------------------------------------------------




--------------------------------------- Iteration      1(  12)  ---------------------------------------


    POTLOK:  cpu time      0.0083: real time      0.0083
    SETDIJ:  cpu time      0.0044: real time      0.0044
     EDDAV:  cpu time      2.9537: real time      2.9539
       DOS:  cpu time      0.0006: real time      0.0006
    CHARGE:  cpu time      0.0205: real time      0.0205
    MIXING:  cpu time      0.0004: real time      0.0004
    --------------------------------------------
      LOOP:  cpu time      2.9879: real time      2.9880

 eigenvalue-minimisations  : 11480
 total energy-change (2. order) :-0.2111853E-04  (-0.3298446E-05)
 number of electron      28.0000011 magnetization      -0.0000000      0.0000000     -0.0000000
 augmentation part       -6.5999443 magnetization      -0.0000000      0.0000000     -0.0000000

 Broyden mixing:
  rms(total) = 0.74738E-03    rms(broyden)= 0.74736E-03
  rms(prec ) = 0.95296E-03
  weight for this iteration     100.00

 eigenvalues of (default mixing * dielectric matrix)
  average eigenvalue GAMMA=   1.3544
  2.6131  2.5677  1.0877  1.0877  0.6255  0.7497  0.7497

 Free energy of the ion-electron system (eV)
  ---------------------------------------------------
  alpha Z        PSCENC =        39.23162007
  Ewald energy   TEWEN  =     -1056.08405188
  -Hartree energ DENC   =       -90.55098225
  -exchange      EXHF   =         0.00000000
  -V(xc)+E(xc)   XCENC  =      -221.56327760
  PAW double counting   =      1450.82734916    -1175.82939145
  entropy T*S    EENTRO =        -0.00000002
  eigenvalues    EBANDS =       -39.89879562
  atomic energy  EATOM  =      1072.99977393
  Solvation  Ediel_sol  =         0.00000000
  ---------------------------------------------------
  free energy    TOTEN  =       -20.86775566 eV

  energy without entropy =      -20.86775565  energy(sigma->0) =      -20.86775565


--------------------------------------------------------------------------------------------------------




--------------------------------------- Iteration      1(  13)  ---------------------------------------


    POTLOK:  cpu time      0.0098: real time      0.0111
    SETDIJ:  cpu time      0.0045: real time      0.0045
     EDDAV:  cpu time      2.3913: real time      2.3914
       DOS:  cpu time      0.0006: real time      0.0006
    CHARGE:  cpu time      0.0200: real time      0.0200
    MIXING:  cpu time      0.0003: real time      0.0003
    --------------------------------------------
      LOOP:  cpu time      2.4265: real time      2.4280

 eigenvalue-minimisations  : 10136
 total energy-change (2. order) :-0.1451930E-05  (-0.3629590E-06)
 number of electron      28.0000011 magnetization      -0.0000000      0.0000000      0.0000000
 augmentation part       -6.5998854 magnetization      -0.0000000      0.0000000      0.0000000

 Broyden mixing:
  rms(total) = 0.42812E-03    rms(broyden)= 0.42811E-03
  rms(prec ) = 0.49620E-03
  weight for this iteration     100.00

 eigenvalues of (default mixing * dielectric matrix)
  average eigenvalue GAMMA=   1.3850
  2.7377  2.5243  1.6132  1.1232  1.0312  0.7782  0.6470  0.6253

 Free energy of the ion-electron system (eV)
  ---------------------------------------------------
  alpha Z        PSCENC =        39.23162007
  Ewald energy   TEWEN  =     -1056.08405188
  -Hartree energ DENC   =       -90.55633658
  -exchange      EXHF   =         0.00000000
  -V(xc)+E(xc)   XCENC  =      -221.56292293
  PAW double counting   =      1450.64526445    -1175.64739144
  entropy T*S    EENTRO =        -0.00000002
  eigenvalues    EBANDS =       -39.89371271
  atomic energy  EATOM  =      1072.99977393
  Solvation  Ediel_sol  =         0.00000000
  ---------------------------------------------------
  free energy    TOTEN  =       -20.86775712 eV

  energy without entropy =      -20.86775710  energy(sigma->0) =      -20.86775711


--------------------------------------------------------------------------------------------------------




--------------------------------------- Iteration      1(  14)  ---------------------------------------


    POTLOK:  cpu time      0.0098: real time      0.0147
    SETDIJ:  cpu time      0.0044: real time      0.0044
     EDDAV:  cpu time      2.9498: real time      2.9499
       DOS:  cpu time      0.0006: real time      0.0005
    CHARGE:  cpu time      0.0198: real time      0.0198
    MIXING:  cpu time      0.0003: real time      0.0003
    --------------------------------------------
      LOOP:  cpu time      2.9847: real time      2.9897

 eigenvalue-minimisations  : 11480
 total energy-change (2. order) :-0.6034998E-06  (-0.1017087E-06)
 number of electron      28.0000011 magnetization      -0.0000000      0.0000000      0.0000000
 augmentation part       -6.5998545 magnetization      -0.0000000      0.0000000      0.0000000

 Broyden mixing:
  rms(total) = 0.16870E-03    rms(broyden)= 0.16869E-03
  rms(prec ) = 0.20120E-03
  weight for this iteration     100.00

 eigenvalues of (default mixing * dielectric matrix)
  average eigenvalue GAMMA=   1.4198
  2.7725  2.5754  2.0653  1.1760  1.0760  1.0760  0.7772  0.6344  0.6253

 Free energy of the ion-electron system (eV)
  ---------------------------------------------------
  alpha Z        PSCENC =        39.23162007
  Ewald energy   TEWEN  =     -1056.08405188
  -Hartree energ DENC   =       -90.55942098
  -exchange      EXHF   =         0.00000000
  -V(xc)+E(xc)   XCENC  =      -221.56260518
  PAW double counting   =      1450.56716064    -1175.56949210
  entropy T*S    EENTRO =        -0.00000002
  eigenvalues    EBANDS =       -39.89074220
  atomic energy  EATOM  =      1072.99977393
  Solvation  Ediel_sol  =         0.00000000
  ---------------------------------------------------
  free energy    TOTEN  =       -20.86775772 eV

  energy without entropy =      -20.86775770  energy(sigma->0) =      -20.86775771


--------------------------------------------------------------------------------------------------------




--------------------------------------- Iteration      1(  15)  ---------------------------------------


    POTLOK:  cpu time      0.0086: real time      0.0102
    SETDIJ:  cpu time      0.0045: real time      0.0045
     EDDAV:  cpu time      2.0573: real time      2.0574
       DOS:  cpu time      0.0006: real time      0.0006



 total charge

# of ion       s       p       d       tot
------------------------------------------
    1        1.812   1.539   0.132   3.483
    2        1.812   1.539   0.132   3.483
    3        1.480   2.314   0.025   3.819
    4        1.501   2.199   0.021   3.721
    5        1.501   2.199   0.021   3.721
--------------------------------------------------
tot          8.106   9.790   0.331  18.227



 magnetization (x)

# of ion       s       p       d       tot
------------------------------------------
    1        0.001  -0.003   0.000  -0.001
    2       -0.001   0.003  -0.000   0.001
    3        0.000  -0.000  -0.000  -0.000
    4        0.001  -0.004  -0.000  -0.003
    5       -0.001   0.004   0.000   0.003
--------------------------------------------------
tot         -0.000  -0.000   0.000  -0.000



 magnetization (y)

# of ion       s       p       d       tot
------------------------------------------
    1       -0.000   0.001  -0.000   0.000
    2        0.000  -0.001   0.000  -0.000
    3        0.000  -0.000   0.000  -0.000
    4       -0.000   0.001   0.000   0.001
    5        0.000  -0.001  -0.000  -0.001
--------------------------------------------------
tot          0.000  -0.000  -0.000  -0.000



 magnetization (z)

# of ion       s       p       d       tot
------------------------------------------
    1        0.000  -0.004   0.000  -0.004
    2       -0.000   0.004  -0.000   0.004
    3        0.000  -0.000   0.000  -0.000
    4        0.002  -0.000  -0.000   0.002
    5       -0.002   0.000   0.000  -0.002
--------------------------------------------------
tot          0.000  -0.000   0.000  -0.000
 
    CHARGE:  cpu time      0.0268: real time      0.0268
    MIXING:  cpu time      0.0004: real time      0.0004
    --------------------------------------------
      LOOP:  cpu time      2.0981: real time      2.0998

 eigenvalue-minimisations  :  9240
 total energy-change (2. order) :-0.2494055E-06  (-0.1695256E-07)
 number of electron      28.0000011 magnetization       0.0000000     -0.0000000     -0.0000000
 augmentation part       -6.5998559 magnetization       0.0000000     -0.0000000     -0.0000000

 Broyden mixing:
  rms(total) = 0.67875E-04    rms(broyden)= 0.67874E-04
  rms(prec ) = 0.82432E-04
  weight for this iteration     100.00

 eigenvalues of (default mixing * dielectric matrix)
  average eigenvalue GAMMA=   1.4419
  2.9039  2.3703  2.3703  1.3675  1.1778  1.1778  1.0173  0.7819  0.6273  0.6249

 Free energy of the ion-electron system (eV)
  ---------------------------------------------------
  alpha Z        PSCENC =        39.23162007
  Ewald energy   TEWEN  =     -1056.08405188
  -Hartree energ DENC   =       -90.56041183
  -exchange      EXHF   =         0.00000000
  -V(xc)+E(xc)   XCENC  =      -221.56240430
  PAW double counting   =      1450.55735818    -1175.55985642
  entropy T*S    EENTRO =        -0.00000002
  eigenvalues    EBANDS =       -39.88978569
  atomic energy  EATOM  =      1072.99977393
  Solvation  Ediel_sol  =         0.00000000
  ---------------------------------------------------
  free energy    TOTEN  =       -20.86775797 eV

  energy without entropy =      -20.86775795  energy(sigma->0) =      -20.86775796


--------------------------------------------------------------------------------------------------------




--------------------------------------- Iteration      1(  16)  ---------------------------------------


    POTLOK:  cpu time      0.0085: real time      0.0085
    SETDIJ:  cpu time      0.0044: real time      0.0044
     EDDAV:  cpu time      2.8316: real time      2.8317
       DOS:  cpu time      0.0006: real time      0.0006
[...]
  0.000  -0.000   0.027   0.000   0.000   0.003  -0.000  -0.000  -0.000   0.035   0.000   0.000   0.044
 total augmentation occupancy for first ion, spin component:           2
  0.000   0.000  -0.000   0.000   0.000  -0.000   0.000  -0.000   0.000  -0.000   0.000   0.000   0.000
  0.000   0.000   0.000   0.000   0.000  -0.000  -0.000   0.000   0.000  -0.000   0.000  -0.000   0.000
 -0.000   0.000   0.000   0.000   0.000  -0.000  -0.000   0.000  -0.000   0.000   0.000   0.000   0.000
  0.000   0.000   0.000   0.000  -0.000  -0.000  -0.000   0.000  -0.000   0.000  -0.000  -0.000  -0.000
  0.000  -0.000   0.000   0.000  -0.000  -0.000  -0.000   0.000  -0.000  -0.000   0.000  -0.000   0.000
 -0.000  -0.000  -0.000  -0.000  -0.000  -0.000  -0.000  -0.000  -0.000   0.000  -0.000  -0.000   0.000
 -0.000   0.000  -0.000   0.000   0.000  -0.000   0.000   0.000  -0.000   0.000   0.000   0.000   0.000
  0.000   0.000   0.000  -0.000   0.000  -0.000   0.000   0.000  -0.000   0.000   0.000  -0.000   0.000
  0.000  -0.000  -0.000   0.000  -0.000   0.000  -0.000  -0.000  -0.000   0.000   0.000  -0.000  -0.000
 -0.000  -0.000   0.000   0.000  -0.000   0.000   0.000  -0.000  -0.000  -0.000   0.000   0.000   0.000
  0.000   0.000   0.000  -0.000  -0.000  -0.000   0.000   0.000  -0.000   0.000   0.000  -0.000   0.000
  0.000   0.000  -0.000  -0.000  -0.000  -0.000   0.000  -0.000  -0.000   0.000  -0.000   0.000  -0.000
  0.000   0.000   0.000  -0.000   0.000   0.000   0.000  -0.000  -0.000   0.000   0.000   0.000   0.000
 total augmentation occupancy for first ion, spin component:           3
 -0.000  -0.000  -0.000  -0.000   0.000   0.000   0.000   0.000  -0.000   0.000  -0.000   0.000   0.000
  0.000   0.000   0.000   0.000  -0.000   0.000   0.000   0.000  -0.000  -0.000  -0.000   0.000  -0.000
  0.000  -0.000   0.000  -0.000   0.000   0.000   0.000  -0.000   0.000  -0.000  -0.000   0.000  -0.000
 -0.000  -0.000   0.000  -0.000  -0.000  -0.000  -0.000   0.000   0.000   0.000   0.000  -0.000   0.000
  0.000  -0.000   0.000  -0.000  -0.000  -0.000   0.000   0.000   0.000   0.000  -0.000  -0.000   0.000
 -0.000   0.000  -0.000  -0.000  -0.000  -0.000   0.000  -0.000   0.000   0.000  -0.000   0.000   0.000
  0.000   0.000   0.000  -0.000   0.000   0.000  -0.000   0.000  -0.000   0.000   0.000  -0.000   0.000
  0.000   0.000  -0.000   0.000  -0.000  -0.000   0.000   0.000  -0.000   0.000   0.000  -0.000   0.000
 -0.000  -0.000   0.000   0.000   0.000   0.000  -0.000  -0.000   0.000   0.000  -0.000   0.000   0.000
 -0.000   0.000  -0.000   0.000   0.000  -0.000  -0.000   0.000   0.000  -0.000   0.000  -0.000  -0.000
  0.000   0.000   0.000   0.000  -0.000   0.000   0.000   0.000  -0.000   0.000   0.000  -0.000   0.000
  0.000   0.000   0.000  -0.000  -0.000   0.000  -0.000  -0.000   0.000  -0.000  -0.000   0.000   0.000
  0.000   0.000  -0.000   0.000   0.000   0.000   0.000   0.000   0.000  -0.000   0.000   0.000   0.000
 total augmentation occupancy for first ion, spin component:           4
  0.000   0.000  -0.000   0.000   0.000   0.000   0.000  -0.000   0.000   0.000   0.000   0.000   0.000
  0.000   0.000  -0.000   0.000  -0.000   0.000   0.000  -0.000   0.000   0.000  -0.000   0.000  -0.000
  0.000   0.000   0.000   0.000  -0.000   0.000  -0.000  -0.000  -0.000   0.000   0.000   0.000   0.000
  0.000   0.000   0.000   0.000  -0.000   0.000   0.000  -0.000  -0.000   0.000   0.000   0.000   0.000
 -0.000  -0.000   0.000   0.000   0.000   0.000  -0.000   0.000   0.000  -0.000  -0.000   0.000   0.000
  0.000   0.000   0.000  -0.000   0.000   0.000   0.000   0.000  -0.000   0.000   0.000  -0.000   0.000
  0.000   0.000   0.000   0.000  -0.000   0.000   0.000   0.000   0.000   0.000   0.000   0.000   0.000
  0.000  -0.000  -0.000  -0.000   0.000  -0.000   0.000   0.000   0.000   0.000   0.000   0.000   0.000
  0.000  -0.000  -0.000  -0.000   0.000  -0.000   0.000   0.000   0.000   0.000   0.000  -0.000   0.000
  0.000   0.000   0.000  -0.000  -0.000  -0.000  -0.000   0.000   0.000   0.000   0.000  -0.000   0.000
  0.000  -0.000   0.000   0.000  -0.000   0.000   0.000   0.000   0.000  -0.000   0.000  -0.000   0.000
  0.000   0.000   0.000   0.000   0.000  -0.000  -0.000   0.000  -0.000   0.000  -0.000   0.000  -0.000
  0.000  -0.000   0.000   0.000   0.000   0.000   0.000   0.000   0.000  -0.000   0.000  -0.000   0.000


------------------------ aborting loop because EDIFF is reached ----------------------------------------





 total charge

# of ion       s       p       d       tot
------------------------------------------
    1        1.812   1.539   0.132   3.483
    2        1.812   1.539   0.132   3.483
    3        1.480   2.314   0.025   3.819
    4        1.501   2.199   0.021   3.721
    5        1.501   2.199   0.021   3.721
--------------------------------------------------
tot          8.106   9.790   0.331  18.227



 magnetization (x)

# of ion       s       p       d       tot
------------------------------------------
    1       -0.000   0.000   0.000  -0.000
    2       -0.000   0.000   0.000  -0.000
    3        0.000   0.000   0.000   0.000
    4        0.000   0.000   0.000   0.000
    5        0.000   0.000   0.000   0.000
--------------------------------------------------
tot         -0.000   0.000   0.000   0.000



 magnetization (y)

# of ion       s       p       d       tot
------------------------------------------
    1        0.000   0.000   0.000   0.000
    2        0.000   0.000   0.000   0.000
    3       -0.000  -0.000   0.000  -0.000
    4        0.000   0.000   0.000   0.000
    5        0.000   0.000   0.000   0.000
--------------------------------------------------
tot          0.000  -0.000   0.000   0.000



 magnetization (z)

# of ion       s       p       d       tot
------------------------------------------
    1        0.000   0.000   0.000   0.000
    2        0.000   0.000   0.000   0.000
    3        0.000   0.000   0.000   0.000
    4        0.000   0.000   0.000   0.000
    5        0.000   0.000   0.000   0.000
--------------------------------------------------
tot          0.000   0.000   0.000   0.000
 
    CHARGE:  cpu time      0.0196: real time      0.0196
    FORLOC:  cpu time      0.0002: real time      0.0002
    FORNL :  cpu time      0.0526: real time      0.0528
    STRESS:  cpu time      0.3622: real time      0.3625
    FORCOR:  cpu time      0.0074: real time      0.0075
    FORHAR:  cpu time      0.0012: real time      0.0014
    MIXING:  cpu time      0.0005: real time      0.0005
    OFIELD:  cpu time      0.0002: real time      0.0002

  FORCE on cell =-STRESS in cart. coord.  units (eV):
  Direction    XX          YY          ZZ          XY          YZ          ZX
  --------------------------------------------------------------------------------------
  Alpha Z    39.23162    39.23162    39.23162
  Ewald    -359.66867  -359.66878  -336.74692     0.00000     0.00010    -0.00000
  Hartree    27.71950    27.71949    35.12202     0.00000     0.00002     0.00000
  E(xc)    -111.14134  -111.14134  -110.81472     0.00000     0.00000     0.00000
  Local     -91.80693   -91.80620  -118.55758    -0.00000     0.00008     0.00000
  n-local   273.11144   273.17749   272.04342     0.42352     0.09858    -0.59245
  augment   -66.88606   -66.88625   -66.16418     0.00000    -0.00010     0.00000
  Kinetic   290.70219   289.99929   285.26458    -5.00347    -0.03546    -0.48485
  Fock        0.00000     0.00000     0.00000     0.00000     0.00000     0.00000
  -------------------------------------------------------------------------------------
  Total       0.94353     0.94353    -0.62175     0.00000     0.00000     0.00000
  in kB      10.67835    10.67836    -7.03659     0.00000     0.00000     0.00000
  external pressure =        4.77 kB  Pullay stress =        0.00 kB


 VOLUME and BASIS-vectors are now :
 -----------------------------------------------------------------------------
  energy-cutoff  :      300.00
  volume of cell :      141.57
      direct lattice vectors                 reciprocal lattice vectors
    -2.069000000 -3.583614000  0.000000000    -0.241662639 -0.139523955  0.034916185
     2.069000000 -3.583614000  0.000000000     0.241662639 -0.139523955  0.034916185
     0.000000000  2.389075000  9.546667000     0.000000000  0.000000000  0.104748600

  length of vectors
     4.138000761  4.138000761  9.841063467     0.281223941  0.281223941  0.104748600


 FORCES acting on ions
    electron-ion (+dipol)            ewald-force                    non-local-force                 convergence-correction
 -----------------------------------------------------------------------------------------------
   0.507E-13 0.119E-04 -.382E+01   0.279E-14 -.170E-05 0.237E+01   0.143E-17 -.268E-06 0.256E+01   -.760E-15 0.415E-10 0.484E-05
   -.187E-12 -.119E-04 0.382E+01   -.633E-14 0.170E-05 -.237E+01   0.270E-17 0.268E-06 -.256E+01   -.137E-17 -.415E-10 -.484E-05
   -.106E-14 0.511E-14 0.269E-13   0.357E-14 0.914E-15 0.711E-14   0.186E-26 -.183E-26 0.707E-27   0.229E-14 -.274E-14 0.399E-13
   0.167E-13 -.657E-06 0.105E+02   0.118E-15 -.414E-05 -.122E+02   0.244E-17 -.273E-06 0.261E+01   -.111E-14 -.148E-09 -.218E-04
   -.695E-14 0.657E-06 -.105E+02   0.301E-14 0.414E-05 0.122E+02   0.117E-17 0.273E-06 -.261E+01   -.959E-15 0.148E-09 0.218E-04
 -----------------------------------------------------------------------------------------------
   -.127E-12 -.102E-12 0.608E-13   0.316E-14 0.368E-14 0.178E-13   0.774E-17 0.204E-16 -.444E-15   -.543E-15 -.425E-14 0.190E-14
 
 
 POSITION                                       TOTAL-FORCE (eV/Angst)
 -----------------------------------------------------------------------------------
      0.00000     -1.19454      6.65403         0.000000     -0.000000      1.107928
      0.00000     -3.58361      2.89264        -0.000000      0.000000     -1.107928
      0.00000      1.19454      4.77333        -0.000000      0.000000     -0.000000
      0.00000     -1.19454      1.12651         0.000000     -0.000000      0.928612
      0.00000     -3.58361      8.42016        -0.000000      0.000000     -0.928612
 -----------------------------------------------------------------------------------
    total drift:                               -0.000000     -0.000000      0.000000


--------------------------------------------------------------------------------------------------------



  FREE ENERGIE OF THE ION-ELECTRON SYSTEM (eV)
  ---------------------------------------------------
  free  energy   TOTEN  =       -20.86775810 eV

  energy  without entropy=      -20.86775808  energy(sigma->0) =      -20.86775809
 


--------------------------------------------------------------------------------------------------------


    POTLOK:  cpu time      0.0169: real time      0.0169


--------------------------------------------------------------------------------------------------------


 writing wavefunctions
     LOOP+:  cpu time     41.6051: real time     41.7608
    4ORBIT:  cpu time      0.0000: real time      0.0000

 Spin-Orbit-Coupling matrix elements

 Ion:    1  E_soc:     -0.9230709
 l=   1
     0.0000000    -0.1517458    -0.1533222
    -0.1517458     0.0000000    -0.1517458
    -0.1533222    -0.1517458     0.0000000
 l=   2
     0.0000000    -0.0003680     0.0000000    -0.0003680    -0.0011564
    -0.0003680     0.0000000    -0.0008434    -0.0004068    -0.0003680
     0.0000000    -0.0008434     0.0000000    -0.0008434     0.0000000
    -0.0003680    -0.0004068    -0.0008434     0.0000000    -0.0003680
    -0.0011564    -0.0003680     0.0000000    -0.0003680     0.0000000
 l=   3
     0.0000000     0.0000000     0.0000000     0.0000000     0.0000000     0.0000000     0.0000000
     0.0000000     0.0000000     0.0000000     0.0000000     0.0000000     0.0000000     0.0000000
     0.0000000     0.0000000     0.0000000     0.0000000     0.0000000     0.0000000     0.0000000
     0.0000000     0.0000000     0.0000000     0.0000000     0.0000000     0.0000000     0.0000000
     0.0000000     0.0000000     0.0000000     0.0000000     0.0000000     0.0000000     0.0000000
     0.0000000     0.0000000     0.0000000     0.0000000     0.0000000     0.0000000     0.0000000
     0.0000000     0.0000000     0.0000000     0.0000000     0.0000000     0.0000000     0.0000000

 Ion:    2  E_soc:     -0.9230709
 l=   1
     0.0000000    -0.1517458    -0.1533222
    -0.1517458     0.0000000    -0.1517458
    -0.1533222    -0.1517458     0.0000000
 l=   2
     0.0000000    -0.0003680     0.0000000    -0.0003680    -0.0011564
    -0.0003680     0.0000000    -0.0008434    -0.0004068    -0.0003680
     0.0000000    -0.0008434     0.0000000    -0.0008434     0.0000000
    -0.0003680    -0.0004068    -0.0008434     0.0000000    -0.0003680
    -0.0011564    -0.0003680     0.0000000    -0.0003680     0.0000000
 l=   3
     0.0000000     0.0000000     0.0000000     0.0000000     0.0000000     0.0000000     0.0000000
     0.0000000     0.0000000     0.0000000     0.0000000     0.0000000     0.0000000     0.0000000
     0.0000000     0.0000000     0.0000000     0.0000000     0.0000000     0.0000000     0.0000000
     0.0000000     0.0000000     0.0000000     0.0000000     0.0000000     0.0000000     0.0000000
     0.0000000     0.0000000     0.0000000     0.0000000     0.0000000     0.0000000     0.0000000
     0.0000000     0.0000000     0.0000000     0.0000000     0.0000000     0.0000000     0.0000000
     0.0000000     0.0000000     0.0000000     0.0000000     0.0000000     0.0000000     0.0000000

 Ion:    3  E_soc:     -0.0422117
 l=   1
     0.0000000    -0.0070216    -0.0071261
    -0.0070216     0.0000000    -0.0070216
    -0.0071261    -0.0070216     0.0000000
 l=   2
     0.0000000     0.0000052     0.0000000     0.0000052     0.0000148
     0.0000052     0.0000000     0.0000114     0.0000050     0.0000052
     0.0000000     0.0000114     0.0000000     0.0000114     0.0000000
     0.0000052     0.0000050     0.0000114     0.0000000     0.0000052
     0.0000148     0.0000052     0.0000000     0.0000052     0.0000000
 l=   3
     0.0000000     0.0000000     0.0000000     0.0000000     0.0000000     0.0000000     0.0000000
     0.0000000     0.0000000     0.0000000     0.0000000     0.0000000     0.0000000     0.0000000
     0.0000000     0.0000000     0.0000000     0.0000000     0.0000000     0.0000000     0.0000000
     0.0000000     0.0000000     0.0000000     0.0000000     0.0000000     0.0000000     0.0000000
     0.0000000     0.0000000     0.0000000     0.0000000     0.0000000     0.0000000     0.0000000
     0.0000000     0.0000000     0.0000000     0.0000000     0.0000000     0.0000000     0.0000000
     0.0000000     0.0000000     0.0000000     0.0000000     0.0000000     0.0000000     0.0000000

 Ion:    4  E_soc:     -0.0533031
 l=   1
     0.0000000    -0.0090645    -0.0085522
    -0.0090645     0.0000000    -0.0090645
    -0.0085522    -0.0090645     0.0000000
 l=   2
     0.0000000     0.0000022     0.0000000     0.0000022     0.0000066
     0.0000022     0.0000000     0.0000054     0.0000035     0.0000022
     0.0000000     0.0000054     0.0000000     0.0000054     0.0000000
     0.0000022     0.0000035     0.0000054     0.0000000     0.0000022
     0.0000066     0.0000022     0.0000000     0.0000022     0.0000000
 l=   3
     0.0000000     0.0000000     0.0000000     0.0000000     0.0000000     0.0000000     0.0000000
     0.0000000     0.0000000     0.0000000     0.0000000     0.0000000     0.0000000     0.0000000
     0.0000000     0.0000000     0.0000000     0.0000000     0.0000000     0.0000000     0.0000000
     0.0000000     0.0000000     0.0000000     0.0000000     0.0000000     0.0000000     0.0000000
     0.0000000     0.0000000     0.0000000     0.0000000     0.0000000     0.0000000     0.0000000
     0.0000000     0.0000000     0.0000000     0.0000000     0.0000000     0.0000000     0.0000000
     0.0000000     0.0000000     0.0000000     0.0000000     0.0000000     0.0000000     0.0000000

 Ion:    5  E_soc:     -0.0533031
 l=   1
     0.0000000    -0.0090645    -0.0085522
    -0.0090645     0.0000000    -0.0090645
    -0.0085522    -0.0090645     0.0000000
 l=   2
     0.0000000     0.0000022     0.0000000     0.0000022     0.0000066
     0.0000022     0.0000000     0.0000054     0.0000035     0.0000022
     0.0000000     0.0000054     0.0000000     0.0000054     0.0000000
     0.0000022     0.0000035     0.0000054     0.0000000     0.0000022
     0.0000066     0.0000022     0.0000000     0.0000022     0.0000000
 l=   3
     0.0000000     0.0000000     0.0000000     0.0000000     0.0000000     0.0000000     0.0000000
     0.0000000     0.0000000     0.0000000     0.0000000     0.0000000     0.0000000     0.0000000
     0.0000000     0.0000000     0.0000000     0.0000000     0.0000000     0.0000000     0.0000000
     0.0000000     0.0000000     0.0000000     0.0000000     0.0000000     0.0000000     0.0000000
     0.0000000     0.0000000     0.0000000     0.0000000     0.0000000     0.0000000     0.0000000
     0.0000000     0.0000000     0.0000000     0.0000000     0.0000000     0.0000000     0.0000000
     0.0000000     0.0000000     0.0000000     0.0000000     0.0000000     0.0000000     0.0000000



 total charge

# of ion       s       p       d       tot
------------------------------------------
    1        1.812   1.539   0.132   3.483
    2        1.812   1.539   0.132   3.483
    3        1.480   2.314   0.025   3.819
    4        1.501   2.199   0.021   3.721
    5        1.501   2.199   0.021   3.721
--------------------------------------------------
tot          8.106   9.790   0.331  18.227



 magnetization (x)

# of ion       s       p       d       tot
------------------------------------------
    1       -0.000   0.000   0.000  -0.000
    2       -0.000   0.000   0.000  -0.000
    3        0.000   0.000   0.000   0.000
    4        0.000   0.000   0.000   0.000
    5        0.000   0.000   0.000   0.000
--------------------------------------------------
tot         -0.000   0.000   0.000   0.000



 magnetization (y)

# of ion       s       p       d       tot
------------------------------------------
    1        0.000   0.000   0.000   0.000
    2        0.000   0.000   0.000   0.000
    3       -0.000  -0.000   0.000  -0.000
    4        0.000   0.000   0.000   0.000
    5        0.000   0.000   0.000   0.000
--------------------------------------------------
tot          0.000  -0.000   0.000   0.000



 magnetization (z)

# of ion       s       p       d       tot
------------------------------------------
    1        0.000   0.000   0.000   0.000
    2        0.000   0.000   0.000   0.000
    3        0.000   0.000   0.000   0.000
    4        0.000   0.000   0.000   0.000
    5        0.000   0.000   0.000   0.000
--------------------------------------------------
tot          0.000   0.000   0.000   0.000
 

 total amount of memory used by VASP MPI-rank0    57028. kBytes
=======================================================================

   base      :      30000. kBytes
   nonl-proj :      20720. kBytes
   fftplans  :        309. kBytes
   grid      :       2467. kBytes
   one-center:        162. kBytes
   wavefun   :       3370. kBytes
 
  
  
 General timing and accounting informations for this job:
 ========================================================
  
                  Total CPU time used (sec):       44.134
                            User time (sec):       43.240
                          System time (sec):        0.894
                         Elapsed time (sec):       44.995
  
                   Maximum memory used (kb):      296848.
                   Average memory used (kb):          N/A
  
                          Minor page faults:        56496
                          Major page faults:            0
                 Voluntary context switches:         2375
