 written on 24May2024 at 18:33:49 
           5
         617
    4    3    2    2    2    1    2    2    1    1    2    3    2    2    2
    3    6    2    2    2    1    2    2    1    1    2    2    1    1    1
    2    2    1    1    1    1    2    2    1    1    1    1    1    2    2
    1    1    1    1    1    1    2    6    2    2    2    2    2    2    2
    6    2    2    3    1    1    1    3    2    1    1    1    1    2    2
    1    1    1    1    1    2    2    1    1    1    1    1    1    2    3
    1    1    1    1    1    1    1    3    1    1    1    1    1    1    1
    1    2    1    1    1    1    1    1    1    2    2    1    1    1    1
    1    1    2    3    2    2    2    3    2    1    2    2    1    1    1
    1    2    4    1    1    1    1    1    1    1    4    1    1    1    1
    1    1    1    1    2    1    1    1    1    1    1    1    2    1    1
    1    1    1    1    1    1    2    1    1    1    1    1    1    1    2
    1    1    1    1    1    1    1    1    2    1    1    1    1    1    2
    2    1    1    2    4    3    2    1    1    2    2    1    1    1    1
    1    2    1    1    1    1    1    1    1    1    2    1    1    1    1
    1    1    1    2    1    1    1    1    1    1    1    1    2    1    1
    1    1    1    1    1    2    1    1    1    1    1    1    1    1    3
    1    1    1    1    1    1    1    3    2    1    1    1    1    2    2
    1    2    2    2    2    1    1    1    2    2    1    1    1    1    1
    1    2    2    1    1    1    1    1    1    1    2    1    1    1    1
    1    1    1    1    2    1    1    1    1    1    1    1    2    1    1
    1    1    1    1    1    1    2    1    1    1    1    1    1    1    2
    2    1    1    1    1    1    1    2    2    1    1    1    2    2    2
    2    1    2    2    1    1    1    1    2    3    1    1    1    1    1
    1    1    3    1    1    1    1    1    1    1    1    2    1    1    1
    1    1    1    1    2    1    1    1    1    1    1    1    1    2    1
    1    1    1    1    1    1    2    1    1    1    1    1    1    1    1
    2    1    1    1    1    1    2    2    1    1    2    3    4    2    1
    1    2    2    1    1    1    1    1    2    1    1    1    1    1    1
    1    1    2    1    1    1    1    1    1    1    2    1    1    1    1
    1    1    1    1    2    1    1    1    1    1    1    1    2    1    1
    1    1    1    1    1    1    4    1    1    1    1    1    1    1    4
    2    1    1    1    1    2    2    1    2    3    2    2    2    3    2
    1    1    1    1    1    1    2    2    1    1    1    1    1    1    1
    2    1    1    1    1    1    1    1    1    3    1    1    1    1    1
    1    1    3    2    1    1    1    1    1    1    2    2    1    1    1
    1    1    2    2    1    1    1    1    2    3    1    1    1    3    2
    2    6    2    2    2    2    2    2    2    6    2    1    1    1    1
    1    1    2    2    1    1    1    1    1    2    2    1    1    1    1
    2    2    1    1    1    2    2    1    1    2    2    1    2    2    2
    6    3    2    2    2    3    2    1    1    2    2    1    2    2    2
    3    4
   -6    2    2    1    1   -0.022166    0.000761
   -6    2    2    2    1   -0.000650    0.008700
   -6    2    2    3    1   -0.000682   -0.006346
   -6    2    2    4    1   -0.000086    0.000680
   -6    2    2    5    1   -0.001774   -0.000029
   -6    2    2    1    2    0.000248    0.005914
   -6    2    2    2    2   -0.018400   -0.000207
   -6    2    2    3    2   -0.000120    0.000253
   -6    2    2    4    2    0.000787    0.000483
   -6    2    2    5    2   -0.000177   -0.000181
   -6    2    2    1    3    0.000526   -0.005540
   -6    2    2    2    3   -0.000756    0.000279
   -6    2    2    3    3   -0.018386   -0.000263
   -6    2    2    4    3   -0.000366   -0.001776
   -6    2    2    5    3   -0.000056    0.000090
   -6    2    2    1    4    0.000718   -0.000330
   -6    2    2    2    4    0.000077   -0.000755
   -6    2    2    3    4    0.000104    0.001139
   -6    2    2    4    4   -0.018923   -0.000153
   -6    2    2    5    4   -0.000660    0.002316
   -6    2    2    1    5    0.001100   -0.000880
   -6    2    2    2    5   -0.000208    0.000389
   -6    2    2    3    5    0.000063   -0.000080
   -6    2    2    4    5   -0.000123   -0.002056
   -6    2    2    5    5   -0.018480   -0.000139
   -5   -1    3    1    1    0.002800    0.001578
   -5   -1    3    2    1    0.008037   -0.000898
   -5   -1    3    3    1   -0.005539   -0.000266
   -5   -1    3    4    1   -0.001560   -0.000593
   -5   -1    3    5    1    0.000649    0.002277
   -5   -1    3    1    2    0.001582    0.000502
   -5   -1    3    2    2    0.000655   -0.000064
   -5   -1    3    3    2    0.001773    0.000162
   -5   -1    3    4    2    0.001040   -0.000262
   -5   -1    3    5    2    0.001779   -0.000040
   -5   -1    3    1    3   -0.002846    0.001032
   -5   -1    3    2    3    0.002282    0.000356
   -5   -1    3    3    3    0.000896    0.000355
   -5   -1    3    4    3    0.000467    0.000072
   -5   -1    3    5    3   -0.001865    0.000209
   -5   -1    3    1    4    0.001982    0.000009
   -5   -1    3    2    4    0.001176    0.000929
   -5   -1    3    3    4    0.001411    0.000042
   -5   -1    3    4    4   -0.001467   -0.001832
   -5   -1    3    5    4    0.000614   -0.000427
   -5   -1    3    1    5    0.000450   -0.001200
   -5   -1    3    2    5    0.001744    0.000189
   -5   -1    3    3    5   -0.001664    0.000138
   -5   -1    3    4    5   -0.001025    0.000490
   -5   -1    3    5    5    0.000954   -0.000038
   -5    0    2    1    1   -0.000067   -0.000315
   -5    0    2    2    1    0.006675   -0.002695
   -5    0    2    3    1    0.003943    0.005067
   -5    0    2    4    1    0.003873   -0.000137
   -5    0    2    5    1    0.003442   -0.002677
   -5    0    2    1    2    0.009272   -0.001400
   -5    0    2    2    2   -0.001620   -0.000202
   -5    0    2    3    2    0.003853   -0.000080
   -5    0    2    4    2   -0.004338    0.000386
   -5    0    2    5    2   -0.001656   -0.000076
   -5    0    2    1    3    0.003800   -0.002024
   -5    0    2    2    3    0.004361   -0.000845
   -5    0    2    3    3   -0.002144   -0.000106
   -5    0    2    4    3    0.001796   -0.000485
   -5    0    2    5    3   -0.003722    0.000058
   -5    0    2    1    4    0.003312   -0.001262
   -5    0    2    2    4   -0.004877   -0.000994
   -5    0    2    3    4    0.001167    0.000646
   -5    0    2    4    4   -0.001066    0.000715
   -5    0    2    5    4    0.013652    0.001123
   -5    0    2    1    5    0.002573    0.001674
   -5    0    2    2    5   -0.000980    0.000134
   -5    0    2    3    5   -0.004517   -0.000416
   -5    0    2    4    5    0.013260   -0.000792
   -5    0    2    5    5   -0.001706   -0.000093
   -5    0    3    1    1    0.000861   -0.000079
   -5    0    3    2    1   -0.005526   -0.004059
   -5    0    3    3    1   -0.007530    0.002217
   -5    0    3    4    1   -0.003435    0.001528
   -5    0    3    5    1    0.003229   -0.001759
   -5    0    3    1    2   -0.003292    0.000600
   -5    0    3    2    2   -0.001790    0.000400
   -5    0    3    3    2    0.004235   -0.000042
   -5    0    3    4    2    0.000737   -0.000430
   -5    0    3    5    2    0.004071   -0.000110
   -5    0    3    1    3   -0.010451    0.001346
   -5    0    3    2    3    0.004111   -0.000309
   -5    0    3    3    3   -0.001721   -0.000123
   -5    0    3    4    3   -0.005165   -0.000785
   -5    0    3    5    3    0.001494   -0.000097
   -5    0    3    1    4   -0.003271    0.000190
   -5    0    3    2    4    0.002098    0.000886
   -5    0    3    3    4   -0.004637    0.000540
   -5    0    3    4    4   -0.001952   -0.000379
   -5    0    3    5    4   -0.013279    0.000024
   -5    0    3    1    5    0.001724    0.001410
   -5    0    3    2    5    0.004425    0.000435
   -5    0    3    3    5    0.001355   -0.000168
   -5    0    3    4    5   -0.014000   -0.000024
   -5    0    3    5    5   -0.001847    0.000180
   -5    1    1    1    1   -0.008719    0.000661
   -5    1    1    2    1    0.004398    0.005507
   -5    1    1    3    1   -0.002549   -0.008463
   -5    1    1    4    1    0.001817   -0.000712
   -5    1    1    5    1   -0.001854    0.000459
   -5    1    1    1    2    0.004806    0.004298
   -5    1    1    2    2    0.006590    0.000116
   -5    1    1    3    2   -0.000153   -0.000201
   -5    1    1    4    2    0.000641    0.000042
   -5    1    1    5    2    0.002712    0.000059
   -5    1    1    1    3   -0.008475    0.000113
   -5    1    1    2    3    0.000058    0.000891
   -5    1    1    3    3    0.008486    0.000028
   -5    1    1    4    3    0.002951   -0.002075
   -5    1    1    5    3    0.000343   -0.000215
   -5    1    1    1    4    0.002527    0.001130
   -5    1    1    2    4   -0.000317   -0.000328
   -5    1    1    3    4    0.003276    0.001679
   -5    1    1    4    4   -0.008772   -0.000802
   -5    1    1    5    4   -0.001143    0.000249
   -5    1    1    1    5    0.001411   -0.001252
   -5    1    1    2    5    0.002728   -0.000149
   -5    1    1    3    5   -0.000446   -0.000088
   -5    1    1    4    5    0.000974   -0.000212
   -5    1    1    5    5    0.006565   -0.000003
   -5    1    2    1    1   -0.002989   -0.001084
   -5    1    2    2    1    0.006264    0.006081
   -5    1    2    3    1   -0.005097   -0.007406
   -5    1    2    4    1    0.000752   -0.000632
   -5    1    2    5    1    0.009687    0.002391
   -5    1    2    1    2    0.008588    0.001722
   -5    1    2    2    2    0.002847    0.000019
   -5    1    2    3    2   -0.009061    0.000190
   -5    1    2    4    2   -0.005391    0.000324
   -5    1    2    5    2    0.000151   -0.000071
   -5    1    2    1    3   -0.007724    0.000101
   -5    1    2    2    3   -0.009707    0.000155
   -5    1    2    3    3    0.003071    0.000288
   -5    1    2    4    3   -0.004400    0.000485
   -5    1    2    5    3   -0.000277    0.000093
   -5    1    2    1    4   -0.001012   -0.000096
   -5    1    2    2    4   -0.004387   -0.000140
   -5    1    2    3    4   -0.004493   -0.000155
   -5    1    2    4    4    0.015058    0.000468
   -5    1    2    5    4    0.001635   -0.001498
   -5    1    2    1    5    0.012658   -0.001691
   -5    1    2    2    5    0.000612    0.000171
   -5    1    2    3    5   -0.000600    0.000039
   -5    1    2    4    5   -0.000956    0.001646
   -5    1    2    5    5    0.001233    0.000309
   -5    1    3    1    1   -0.007263    0.001000
   -5    1    3    2    1    0.002723    0.010550
   -5    1    3    3    1   -0.004215   -0.003263
   -5    1    3    4    1   -0.002392    0.000401
   -5    1    3    5    1   -0.001590    0.002418
   -5    1    3    1    2    0.009276   -0.000412
   -5    1    3    2    2    0.008280   -0.000210
   -5    1    3    3    2    0.000003    0.000036
   -5    1    3    4    2    0.003421    0.000003
   -5    1    3    5    2   -0.000280   -0.000151
   -5    1    3    1    3   -0.004153   -0.005002
   -5    1    3    2    3   -0.000359    0.000453
   -5    1    3    3    3    0.006546    0.000112
   -5    1    3    4    3    0.000330   -0.000412
   -5    1    3    5    3   -0.002742   -0.000191
   -5    1    3    1    4   -0.001442   -0.000076
   -5    1    3    2    4    0.004701   -0.000194
   -5    1    3    3    4   -0.000324    0.000028
   -5    1    3    4    4   -0.010483   -0.000905
   -5    1    3    5    4   -0.001148    0.000670
   -5    1    3    1    5    0.001697   -0.002855
   -5    1    3    2    5   -0.000056    0.000011
   -5    1    3    3    5   -0.002789   -0.000052
   -5    1    3    4    5    0.000664   -0.000787
   -5    1    3    5    5    0.006616    0.000002
   -5    2    0    1    1   -0.000546   -0.001170
   -5    2    0    2    1   -0.016609   -0.004358
   -5    2    0    3    1   -0.001751    0.004026
   -5    2    0    4    1    0.004296    0.001821
   -5    2    0    5    1   -0.001007    0.000273
   -5    2    0    1    2   -0.016315   -0.006091
   -5    2    0    2    2   -0.002002   -0.000041
   -5    2    0    3    2   -0.004571   -0.000006
   -5    2    0    4    2    0.005304   -0.001163
   -5    2    0    5    2   -0.001054   -0.000068
   -5    2    0    1    3    0.003109    0.006157
   -5    2    0    2    3   -0.003418   -0.000723
   -5    2    0    3    3   -0.002331    0.000093
   -5    2    0    4    3    0.001110    0.000044
   -5    2    0    5    3    0.004311   -0.000308
   -5    2    0    1    4    0.002415   -0.000331
   -5    2    0    2    4    0.005069    0.000414
   -5    2    0    3    4    0.002532    0.000399
   -5    2    0    4    4   -0.002647    0.001059
   -5    2    0    5    4   -0.014030   -0.001069
   -5    2    0    1    5   -0.004051    0.000083
   -5    2    0    2    5   -0.001156   -0.000010
   -5    2    0    3    5    0.003769    0.000327
   -5    2    0    4    5   -0.013529    0.001705
   -5    2    0    5    5   -0.001825    0.000059
   -5    2    1    1    1    0.011340    0.000490
   -5    2    1    2    1   -0.008061   -0.005382
   -5    2    1    3    1    0.004129    0.007170
   -5    2    1    4    1   -0.010087   -0.000533
   -5    2    1    5    1    0.003199    0.001177
   -5    2    1    1    2   -0.008495   -0.006393
   -5    2    1    2    2    0.001400    0.000018
   -5    2    1    3    2   -0.000391   -0.000212
   -5    2    1    4    2   -0.010773    0.000747
   -5    2    1    5    2    0.000463    0.000559
   -5    2    1    1    3    0.008073    0.002343
   -5    2    1    2    3    0.000246   -0.000243
   -5    2    1    3    3    0.002862    0.000358
   -5    2    1    4    3   -0.000345   -0.000506
   -5    2    1    5    3   -0.009219   -0.000260
   -5    2    1    1    4   -0.007364    0.000158
   -5    2    1    2    4   -0.009460    0.000627
   -5    2    1    3    4    0.000491   -0.000014
   -5    2    1    4    4    0.000846   -0.000940
   -5    2    1    5    4   -0.005117   -0.000433
   -5    2    1    1    5    0.002193   -0.000930
   -5    2    1    2    5    0.000047   -0.000153
   -5    2    1    3    5   -0.008918    0.000156
   -5    2    1    4    5   -0.004268   -0.000546
   -5    2    1    5    5    0.003066    0.000073
   -5    2    2    1    1    0.009999   -0.000362
   -5    2    2    2    1   -0.005073   -0.006327
   -5    2    2    3    1    0.007156    0.004990
   -5    2    2    4    1    0.009625   -0.000153
   -5    2    2    5    1    0.005300   -0.002272
   -5    2    2    1    2   -0.008706   -0.004558
   -5    2    2    2    2    0.003224    0.000318
   -5    2    2    3    2   -0.000091   -0.000306
   -5    2    2    4    2    0.000461    0.000092
   -5    2    2    5    2    0.009134    0.000126
   -5    2    2    1    3    0.008926    0.005267
   -5    2    2    2    3   -0.000048   -0.000296
   -5    2    2    3    3    0.001267   -0.000177
   -5    2    2    4    3   -0.009779    0.000835
   -5    2    2    5    3   -0.000570   -0.000346
   -5    2    2    1    4    0.007636    0.000761
   -5    2    2    2    4   -0.000256   -0.001328
   -5    2    2    3    4   -0.010029   -0.000446
   -5    2    2    4    4    0.002170    0.000427
   -5    2    2    5    4    0.005367    0.000488
   -5    2    2    1    5    0.000573    0.002093
   -5    2    2    2    5    0.009261   -0.000098
   -5    2    2    3    5   -0.000131    0.000168
   -5    2    2    4    5    0.004042    0.000300
   -5    2    2    5    5    0.003014   -0.000206
   -5    2    3    1    1    0.000143   -0.001076
   -5    2    3    2    1    0.003827   -0.007661
   -5    2    3    3    1    0.015890    0.002924
   -5    2    3    4    1   -0.003746    0.000843
   -5    2    3    5    1   -0.001851   -0.000122
   -5    2    3    1    2   -0.004662   -0.004321
   -5    2    3    2    2   -0.002345    0.000405
   -5    2    3    3    2   -0.003848   -0.000104
   -5    2    3    4    2    0.001917   -0.001399
   -5    2    3    5    2   -0.003820    0.000600
   -5    2    3    1    3    0.016165    0.005938
   -5    2    3    2    3   -0.003801   -0.000187
   -5    2    3    3    3   -0.001833    0.000175
   -5    2    3    4    3    0.004896    0.000358
   -5    2    3    5    3    0.001311   -0.000154
   -5    2    3    1    4   -0.001863   -0.002096
   -5    2    3    2    4    0.001815    0.001918
   -5    2    3    3    4    0.004584   -0.000701
   -5    2    3    4    4   -0.003455    0.000217
   -5    2    3    5    4    0.013142    0.000691
   -5    2    3    1    5   -0.003334    0.000625
   -5    2    3    2    5   -0.004137   -0.000420
   -5    2    3    3    5    0.001305   -0.000013
   -5    2    3    4    5    0.014200   -0.001223
   -5    2    3    5    5   -0.001769    0.000280
   -5    3   -1    1    1    0.000919   -0.001040
   -5    3   -1    2    1    0.000015    0.002445
   -5    3   -1    3    1   -0.000740   -0.001853
   -5    3   -1    4    1    0.000424   -0.000507
   -5    3   -1    5    1   -0.000923   -0.000104
   -5    3   -1    1    2    0.000284    0.006218
   -5    3   -1    2    2    0.001267    0.000672
   -5    3   -1    3    2   -0.001939   -0.000079
   -5    3   -1    4    2   -0.002075   -0.000143
   -5    3   -1    5    2    0.001863    0.000050
   -5    3   -1    1    3    0.000705   -0.005601
   -5    3   -1    2    3   -0.002145    0.000358
   -5    3   -1    3    3    0.001310   -0.000010
   -5    3   -1    4    3    0.001458   -0.001036
   -5    3   -1    5    3    0.001862    0.000060
   -5    3   -1    1    4   -0.000341    0.000537
   -5    3   -1    2    4   -0.000699    0.000166
   -5    3   -1    3    4   -0.000080    0.000586
   -5    3   -1    4    4    0.001003    0.000399
   -5    3   -1    5    4    0.000059   -0.000337
   -5    3   -1    1    5   -0.000753   -0.000184
   -5    3   -1    2    5    0.001703   -0.000106
   -5    3   -1    3    5    0.001829    0.000063
   -5    3   -1    4    5    0.000338    0.000201
   -5    3   -1    5    5    0.000967   -0.000021
   -5    3    0    1    1   -0.003462    0.000538
   -5    3    0    2    1    0.011592    0.004357
   -5    3    0    3    1    0.012229   -0.003448
   -5    3    0    4    1   -0.000376   -0.000439
   -5    3    0    5    1   -0.005057   -0.001113
   -5    3    0    1    2    0.011404    0.004057
   -5    3    0    2    2   -0.001686    0.000213
   -5    3    0    3    2    0.001049   -0.000288
   -5    3    0    4    2   -0.008635    0.001812
   -5    3    0    5    2    0.004235    0.000191
   -5    3    0    1    3    0.011409   -0.004516
   -5    3    0    2    3    0.000687    0.000199
   -5    3    0    3    3   -0.001484   -0.000231
   -5    3    0    4    3    0.008888    0.000821
   -5    3    0    5    3    0.004242    0.000378
   -5    3    0    1    4   -0.000396   -0.000860
   -5    3    0    2    4   -0.008502   -0.001574
   -5    3    0    3    4    0.009416   -0.000526
   -5    3    0    4    4    0.002106   -0.000513
   -5    3    0    5    4   -0.000135   -0.000767
   -5    3    0    1    5   -0.000435    0.001601
   -5    3    0    2    5    0.004173   -0.000119
   -5    3    0    3    5    0.004197   -0.000133
   -5    3    0    4    5   -0.000316    0.001068
   -5    3    0    5    5   -0.002012   -0.000006
   -5    3    1    1    1   -0.009308   -0.000836
   -5    3    1    2    1    0.000786    0.005467
   -5    3    1    3    1    0.000276   -0.004059
   -5    3    1    4    1    0.000177    0.000599
   -5    3    1    5    1   -0.005023   -0.000247
   -5    3    1    1    2   -0.000062    0.005296
   -5    3    1    2    2    0.006726    0.000224
   -5    3    1    3    2   -0.002944   -0.000135
   -5    3    1    4    2    0.000570   -0.000441
   -5    3    1    5    2   -0.000038   -0.000499
   -5    3    1    1    3   -0.000419   -0.004682
   -5    3    1    2    3   -0.003349    0.000145
   -5    3    1    3    3    0.006878    0.000185
   -5    3    1    4    3   -0.000555   -0.000819
   -5    3    1    5    3   -0.000054    0.000082
   -5    3    1    1    4    0.000012   -0.000160
   -5    3    1    2    4   -0.000666   -0.000214
   -5    3    1    3    4    0.000129    0.000578
   -5    3    1    4    4   -0.006735    0.000301
   -5    3    1    5    4   -0.000107    0.001442
   -5    3    1    1    5   -0.000735   -0.000464
   -5    3    1    2    5   -0.000005    0.000331
   -5    3    1    3    5   -0.000056   -0.000216
   -5    3    1    4    5    0.000036   -0.001253
   -5    3    1    5    5    0.008157    0.000126
   -5    3    2    1    1   -0.004432    0.000639
   -5    3    2    2    1   -0.012045    0.003092
   -5    3    2    3    1   -0.012082   -0.002926
   -5    3    2    4    1    0.000036   -0.000379
   -5    3    2    5    1   -0.003645   -0.000323
   -5    3    2    1    2   -0.011871    0.005590
   -5    3    2    2    2   -0.001936   -0.000403
   -5    3    2    3    2    0.001124    0.000177
   -5    3    2    4    2    0.008517   -0.001404
   -5    3    2    5    2   -0.004289   -0.000164
   -5    3    2    1    3   -0.011277   -0.004623
   -5    3    2    2    3    0.000730   -0.000245
   -5    3    2    3    3   -0.001634    0.000206
   -5    3    2    4    3   -0.008667   -0.000174
   -5    3    2    5    3   -0.004434   -0.000050
   -5    3    2    1    4    0.000344    0.000184
   -5    3    2    2    4    0.009023    0.002121
   -5    3    2    3    4   -0.008922    0.000363
   -5    3    2    4    4    0.003622   -0.000678
   -5    3    2    5    4    0.000298   -0.000592
   -5    3    2    1    5   -0.002418    0.000961
   -5    3    2    2    5   -0.004017    0.000093
   -5    3    2    3    5   -0.004164    0.000254
   -5    3    2    4    5    0.000217    0.000455
   -5    3    2    5    5   -0.002078    0.000237
   -5    3    3    1    1    0.002706   -0.000422
   -5    3    3    2    1   -0.000818    0.003350
   -5    3    3    3    1   -0.000558   -0.002420
   -5    3    3    4    1    0.000619    0.000718
   -5    3    3    5    1   -0.001932   -0.000706
   -5    3    3    1    2    0.001005    0.005373
   -5    3    3    2    2    0.001291   -0.000235
   -5    3    3    3    2   -0.001946   -0.000247
   -5    3    3    4    2    0.000646   -0.000381
   -5    3    3    5    2   -0.001810   -0.000102
   -5    3    3    1    3    0.000443   -0.005633
   -5    3    3    2    3   -0.002175   -0.000354
   -5    3    3    3    3    0.001285    0.000272
   -5    3    3    4    3   -0.000617    0.001397
   -5    3    3    5    3   -0.001673   -0.000098
   -5    3    3    1    4   -0.000456   -0.000035
   -5    3    3    2    4    0.001588   -0.000631
   -5    3    3    3    4   -0.001379   -0.000942
   -5    3    3    4    4   -0.000729    0.000530
   -5    3    3    5    4    0.000003    0.000069
   -5    3    3    1    5    0.000997    0.000556
   -5    3    3    2    5   -0.001897   -0.000385
   -5    3    3    3    5   -0.001847   -0.000179
   -5    3    3    4    5   -0.000388   -0.000133
   -5    3    3    5    5    0.001075   -0.000145
   -4   -4    4    1    1    0.009010   -0.000000
   -4   -4    4    2    1    0.000155   -0.001584
   -4   -4    4    3    1    0.000059    0.000641
   -4   -4    4    4    1    0.000094   -0.000750
   -4   -4    4    5    1    0.000031   -0.000252
   -4   -4    4    1    2    0.000155    0.001584
   -4   -4    4    2    2   -0.006529   -0.000000
   -4   -4    4    3    2   -0.000102    0.000228
   -4   -4    4    4    2   -0.000345   -0.000075
   -4   -4    4    5    2    0.000027    0.000181
   -4   -4    4    1    3    0.000059   -0.000641
   -4   -4    4    2    3   -0.000102   -0.000228
   -4   -4    4    3    3   -0.006339   -0.000000
   -4   -4    4    4    3   -0.000126    0.000092
   -4   -4    4    5    3   -0.000013   -0.000002
   -4   -4    4    1    4    0.000094    0.000750
   -4   -4    4    2    4   -0.000345    0.000075
   -4   -4    4    3    4   -0.000126   -0.000092
   -4   -4    4    4    4    0.009297   -0.000000
   -4   -4    4    5    4    0.000133   -0.000679
   -4   -4    4    1    5    0.000031    0.000252
   -4   -4    4    2    5    0.000027   -0.000181
   -4   -4    4    3    5   -0.000013    0.000002
   -4   -4    4    4    5    0.000133    0.000679
   -4   -4    4    5    5   -0.006801   -0.000000
   -4   -3    3    1    1   -0.002919    0.000610
   -4   -3    3    2    1   -0.001342    0.003712
   -4   -3    3    3    1   -0.001264   -0.002051
   -4   -3    3    4    1   -0.002470   -0.000475
   -4   -3    3    5    1   -0.000715   -0.000105
   -4   -3    3    1    2   -0.000032    0.000065
   -4   -3    3    2    2   -0.000496   -0.000134
   -4   -3    3    3    2    0.000022    0.000015
   -4   -3    3    4    2    0.000088   -0.000042
   -4   -3    3    5    2   -0.006459   -0.000111
   -4   -3    3    1    3   -0.000269   -0.001907
   -4   -3    3    2    3    0.000074    0.000373
   -4   -3    3    3    3    0.000449   -0.000297
   -4   -3    3    4    3    0.003032    0.000879
   -4   -3    3    5    3   -0.000175    0.000021
   -4   -3    3    1    4   -0.002837   -0.000398
   -4   -3    3    2    4   -0.000358    0.000108
   -4   -3    3    3    4    0.002278   -0.000966
   -4   -3    3    4    4    0.000703    0.000035
   -4   -3    3    5    4    0.000582    0.000338
   -4   -3    3    1    5    0.000145   -0.000705
   -4   -3    3    2    5   -0.006824    0.000055
   -4   -3    3    3    5    0.000071   -0.000031
   -4   -3    3    4    5   -0.000277   -0.000434
   -4   -3    3    5    5   -0.000328   -0.000214
   -4   -3    4    1    1   -0.002288    0.000849
   -4   -3    4    2    1    0.000271    0.003490
   -4   -3    4    3    1    0.000951   -0.003078
   -4   -3    4    4    1    0.002997    0.000368
   -4   -3    4    5    1   -0.000616   -0.000277
   -4   -3    4    1    2    0.001420    0.000990
   -4   -3    4    2    2    0.000679   -0.000389
   -4   -3    4    3    2    0.000030   -0.000116
   -4   -3    4    4    2    0.002524    0.000506
   -4   -3    4    5    2    0.000129   -0.000214
   -4   -3    4    1    3   -0.000085   -0.000333
   -4   -3    4    2    3    0.000060    0.000162
   -4   -3    4    3    3   -0.000696   -0.000221
   -4   -3    4    4    3    0.000077    0.000110
   -4   -3    4    5    3    0.006497    0.000155
   -4   -3    4    1    4    0.002815    0.000536
   -4   -3    4    2    4    0.003185   -0.000566
   -4   -3    4    3    4    0.000219    0.000000
   -4   -3    4    4    4    0.000098   -0.000166
   -4   -3    4    5    4   -0.000232   -0.000419
   -4   -3    4    1    5   -0.000023    0.000235
   -4   -3    4    2    5   -0.000103    0.000004
   -4   -3    4    3    5    0.006684    0.000111
   -4   -3    4    4    5   -0.000039    0.000321
   -4   -3    4    5    5   -0.000408   -0.000072
   -4   -2    2    1    1    0.003308    0.000300
   -4   -2    2    2    1    0.005368   -0.005435
   -4   -2    2    3    1   -0.002895    0.003897
   -4   -2    2    4    1   -0.000201   -0.000687
   -4   -2    2    5    1    0.000206    0.000985
   -4   -2    2    1    2    0.000221   -0.000110
   -4   -2    2    2    2   -0.006114    0.000116
   -4   -2    2    3    2   -0.000011   -0.000345
   -4   -2    2    4    2   -0.000113    0.000460
   -4   -2    2    5    2   -0.001091    0.000056
   -4   -2    2    1    3   -0.000784    0.001590
   -4   -2    2    2    3    0.000252   -0.000046
   -4   -2    2    3    3   -0.000689    0.000416
   -4   -2    2    4    3   -0.001161    0.000086
   -4   -2    2    5    3    0.000278    0.000000
   -4   -2    2    1    4    0.002287    0.000823
   -4   -2    2    2    4   -0.000235    0.000089
   -4   -2    2    3    4   -0.000490    0.000024
   -4   -2    2    4    4    0.000871   -0.000759
   -4   -2    2    5    4   -0.000081   -0.000625
   -4   -2    2    1    5    0.000023    0.000567
   -4   -2    2    2    5   -0.000655    0.000200
   -4   -2    2    3    5   -0.000005    0.000130
   -4   -2    2    4    5   -0.000083    0.000380
   -4   -2    2    5    5   -0.006106   -0.000073
   -4   -2    3    1    1   -0.003094   -0.002383
   -4   -2    3    2    1    0.003899   -0.005719
   -4   -2    3    3    1   -0.003017    0.004151
   -4   -2    3    4    1    0.000675    0.000376
   -4   -2    3    5    1   -0.000256    0.001159
   -4   -2    3    1    2    0.000164   -0.000382
   -4   -2    3    2    2    0.000949    0.000625
   -4   -2    3    3    2    0.004359   -0.000186
   -4   -2    3    4    2   -0.000352   -0.000598
   -4   -2    3    5    2    0.000997    0.000367
   -4   -2    3    1    3    0.000274    0.001358
   -4   -2    3    2    3    0.004474   -0.000257
   -4   -2    3    3    3    0.001058    0.000580
   -4   -2    3    4    3    0.000390    0.000264
   -4   -2    3    5    3   -0.000998    0.000120
   -4   -2    3    1    4   -0.001584   -0.000406
   -4   -2    3    2    4    0.000156   -0.000087
   -4   -2    3    3    4   -0.000225   -0.000412
   -4   -2    3    4    4    0.000312    0.001190
   -4   -2    3    5    4    0.000251    0.000793
   -4   -2    3    1    5   -0.002747   -0.000251
   -4   -2    3    2    5    0.001334   -0.000298
   -4   -2    3    3    5   -0.001224   -0.000053
   -4   -2    3    4    5   -0.000274   -0.000558
   -4   -2    3    5    5   -0.001421   -0.000012
   -4   -2    4    1    1    0.005007    0.000361
   -4   -2    4    2    1    0.004748   -0.004984
   -4   -2    4    3    1   -0.004249    0.004216
   -4   -2    4    4    1   -0.002088    0.000057
   -4   -2    4    5    1    0.001292    0.001118
   -4   -2    4    1    2   -0.000556   -0.001708
   -4   -2    4    2    2   -0.001095    0.000453
   -4   -2    4    3    2   -0.000043   -0.000075
   -4   -2    4    4    2   -0.000040    0.000655
   -4   -2    4    5    2   -0.000191   -0.000255
   -4   -2    4    1    3   -0.000600    0.000830
   -4   -2    4    2    3    0.000147   -0.000246
   -4   -2    4    3    3   -0.006044    0.000061
   -4   -2    4    4    3   -0.000610   -0.000294
   -4   -2    4    5    3    0.000955   -0.000154
   -4   -2    4    1    4    0.000555   -0.000462
   -4   -2    4    2    4   -0.001039   -0.000062
   -4   -2    4    3    4    0.000282    0.000366
   -4   -2    4    4    4   -0.000366   -0.000877
   -4   -2    4    5    4   -0.000097   -0.000038
   -4   -2    4    1    5   -0.000742    0.000631
   -4   -2    4    2    5    0.000129    0.000270
   -4   -2    4    3    5    0.000837   -0.000044
   -4   -2    4    4    5    0.000152   -0.000211
   -4   -2    4    5    5   -0.006095    0.000002
   -4   -1    1    1    1   -0.011163    0.000411
   -4   -1    1    2    1   -0.007412    0.004450
   -4   -1    1    3    1    0.013405    0.000534
   -4   -1    1    4    1   -0.003196    0.000876
   -4   -1    1    5    1   -0.001047   -0.000561
   -4   -1    1    1    2   -0.003112   -0.000373
   -4   -1    1    2    2    0.001340   -0.000115
   -4   -1    1    3    2   -0.000186    0.000386
   -4   -1    1    4    2    0.000913   -0.000661
   -4   -1    1    5    2    0.004311    0.000036
   -4   -1    1    1    3    0.008886   -0.005943
   -4   -1    1    2    3   -0.000341   -0.000301
   -4   -1    1    3    3    0.024641   -0.000219
   -4   -1    1    4    3   -0.010461    0.001118
   -4   -1    1    5    3   -0.000050   -0.000345
   -4   -1    1    1    4   -0.002405   -0.001995
   -4   -1    1    2    4    0.000027    0.000531
   -4   -1    1    3    4   -0.013016   -0.001493
   -4   -1    1    4    4   -0.003687    0.000164
   -4   -1    1    5    4    0.000527    0.000755
   -4   -1    1    1    5    0.001409   -0.001185
   -4   -1    1    2    5    0.003895    0.000018
   -4   -1    1    3    5   -0.000184   -0.000114
   -4   -1    1    4    5   -0.000960   -0.000694
   -4   -1    1    5    5    0.001258   -0.000242
   -4   -1    2    1    1   -0.003446    0.000892
   -4   -1    2    2    1   -0.010901    0.004123
   -4   -1    2    3    1    0.017558   -0.002251
   -4   -1    2    4    1    0.000886    0.000341
   -4   -1    2    5    1    0.001667   -0.002644
   -4   -1    2    1    2   -0.001278    0.000995
   -4   -1    2    2    2    0.004922   -0.000181
   -4   -1    2    3    2   -0.006388    0.000541
   -4   -1    2    4    2    0.000576    0.000435
   -4   -1    2    5    2   -0.002025   -0.000134
   -4   -1    2    1    3    0.009093   -0.002360
   -4   -1    2    2    3   -0.006635   -0.000804
   -4   -1    2    3    3   -0.000641   -0.000413
   -4   -1    2    4    3    0.005311   -0.000488
   -4   -1    2    5    3    0.000967    0.000023
   -4   -1    2    1    4    0.000431    0.001442
   -4   -1    2    2    4    0.001575    0.000275
   -4   -1    2    3    4    0.006304    0.000820
   -4   -1    2    4    4    0.001029   -0.000445
   -4   -1    2    5    4    0.002715   -0.000086
   -4   -1    2    1    5    0.003263    0.001281
   -4   -1    2    2    5   -0.001940   -0.000160
   -4   -1    2    3    5    0.000746    0.000177
   -4   -1    2    4    5    0.002964    0.000274
   -4   -1    2    5    5    0.002174    0.000146
   -4   -1    3    1    1   -0.003769    0.000057
   -4   -1    3    2    1   -0.017411    0.002505
   -4   -1    3    3    1    0.007622   -0.002796
   -4   -1    3    4    1   -0.000776   -0.001140
   -4   -1    3    5    1    0.001100   -0.002225
   -4   -1    3    1    2   -0.011286    0.002675
   -4   -1    3    2    2   -0.000474   -0.000572
   -4   -1    3    3    2   -0.006282   -0.000591
   -4   -1    3    4    2    0.007127   -0.000215
   -4   -1    3    5    2   -0.000682    0.000318
   -4   -1    3    1    3    0.003200   -0.001619
   -4   -1    3    2    3   -0.006519    0.000493
   -4   -1    3    3    3    0.004832   -0.000084
   -4   -1    3    4    3    0.002280    0.000954
   -4   -1    3    5    3    0.001793   -0.000485
   -4   -1    3    1    4   -0.000802   -0.000383
   -4   -1    3    2    4    0.004844   -0.000092
   -4   -1    3    3    4    0.000485   -0.001106
   -4   -1    3    4    4    0.001221    0.000738
   -4   -1    3    5    4   -0.003018   -0.000759
   -4   -1    3    1    5    0.003539   -0.000279
   -4   -1    3    2    5   -0.000974   -0.000372
   -4   -1    3    3    5    0.002039    0.000275
   -4   -1    3    4    5   -0.002403    0.000543
   -4   -1    3    5    5    0.002162   -0.000140
   -4   -1    4    1    1   -0.011646    0.000748
   -4   -1    4    2    1   -0.016630   -0.000379
   -4   -1    4    3    1    0.006664   -0.003279
   -4   -1    4    4    1    0.004375    0.001675
   -4   -1    4    5    1   -0.000059   -0.000482
   -4   -1    4    1    2   -0.006482    0.006654
   -4   -1    4    2    2    0.025092   -0.000162
   -4   -1    4    3    2    0.000112   -0.000359
   -4   -1    4    4    2   -0.012551    0.000174
   -4   -1    4    5    2    0.000011    0.000470
   -4   -1    4    1    3    0.001957   -0.000264
   -4   -1    4    2    3   -0.000308    0.000390
   -4   -1    4    3    3    0.001353   -0.000055
   -4   -1    4    4    3   -0.000473    0.000428
   -4   -1    4    5    3   -0.003915    0.000149
   -4   -1    4    1    4    0.003323   -0.000368
   -4   -1    4    2    4   -0.010805    0.000032
   -4   -1    4    3    4    0.000573   -0.000127
   -4   -1    4    4    4   -0.003961   -0.000571
   -4   -1    4    5    4    0.000208    0.000656
   -4   -1    4    1    5   -0.000092   -0.000291
   -4   -1    4    2    5    0.000221   -0.000526
   -4   -1    4    3    5   -0.004113    0.000095
   -4   -1    4    4    5   -0.000527   -0.000334
   -4   -1    4    5    5    0.001255    0.000039
   -4    0    0    1    1    0.012262   -0.000000
   -4    0    0    2    1    0.006039   -0.002124
   -4    0    0    3    1    0.010976   -0.006054
   -4    0    0    4    1    0.007120   -0.001689
   -4    0    0    5    1   -0.000305   -0.000505
   -4    0    0    1    2    0.006039    0.002124
   -4    0    0    2    2    0.004999   -0.000000
   -4    0    0    3    2    0.000323   -0.000584
   -4    0    0    4    2   -0.000002    0.000805
   -4    0    0    5    2   -0.005082    0.000172
   -4    0    0    1    3    0.010976    0.006054
   -4    0    0    2    3    0.000323    0.000584
   -4    0    0    3    3    0.029749   -0.000000
   -4    0    0    4    3   -0.028417    0.000738
   -4    0    0    5    3   -0.000031    0.000134
   -4    0    0    1    4    0.007120    0.001689
   -4    0    0    2    4   -0.000002   -0.000805
   -4    0    0    3    4   -0.028417   -0.000738
   -4    0    0    4    4    0.005078   -0.000000
   -4    0    0    5    4    0.000164   -0.002177
   -4    0    0    1    5   -0.000305    0.000505
   -4    0    0    2    5   -0.005082   -0.000172
   -4    0    0    3    5   -0.000031   -0.000134
   -4    0    0    4    5    0.000164    0.002177
   -4    0    0    5    5    0.005208   -0.000000
   -4    0    1    1    1    0.006228   -0.000836
   -4    0    1    2    1   -0.001855   -0.000809
   -4    0    1    3    1    0.006782   -0.005419
   -4    0    1    4    1   -0.002101    0.000547
   -4    0    1    5    1   -0.003254    0.004017
   -4    0    1    1    2   -0.006248   -0.000331
   -4    0    1    2    2   -0.003074    0.000210
   -4    0    1    3    2   -0.004204   -0.000353
   -4    0    1    4    2    0.007767   -0.001166
   -4    0    1    5    2    0.002324    0.000015
   -4    0    1    1    3    0.010533    0.006392
   -4    0    1    2    3   -0.003948    0.000604
   -4    0    1    3    3   -0.000721    0.000034
   -4    0    1    4    3    0.008045   -0.000152
   -4    0    1    5    3   -0.006289   -0.000796
   -4    0    1    1    4   -0.003580   -0.001006
   -4    0    1    2    4    0.010013    0.001000
   -4    0    1    3    4    0.005772   -0.000063
   -4    0    1    4    4    0.001383    0.000617
   -4    0    1    5    4   -0.001943    0.001465
   -4    0    1    1    5   -0.004728   -0.002403
   -4    0    1    2    5    0.002076   -0.000038
   -4    0    1    3    5   -0.005851    0.000845
   -4    0    1    4    5   -0.003010   -0.001316
   -4    0    1    5    5   -0.001387   -0.000024
   -4    0    2    1    1    0.002568    0.000632
   -4    0    2    2    1   -0.002282    0.002441
   -4    0    2    3    1    0.004794   -0.000914
   -4    0    2    4    1   -0.001473   -0.000122
   -4    0    2    5    1   -0.014668    0.003307
   -4    0    2    1    2   -0.009968   -0.002252
   -4    0    2    2    2   -0.002558    0.000068
   -4    0    2    3    2   -0.002250    0.000017
   -4    0    2    4    2   -0.000356    0.000245
   -4    0    2    5    2    0.000760    0.000125
   -4    0    2    1    3    0.009086    0.001274
   -4    0    2    2    3   -0.002667    0.000662
   -4    0    2    3    3   -0.002396    0.000020
   -4    0    2    4    3   -0.003084    0.000838
   -4    0    2    5    3   -0.001097    0.000116
   -4    0    2    1    4    0.001138    0.000460
   -4    0    2    2    4   -0.002498   -0.000157
   -4    0    2    3    4   -0.000598   -0.000771
   -4    0    2    4    4   -0.008534   -0.000448
   -4    0    2    5    4   -0.000630   -0.000513
   -4    0    2    1    5   -0.015290   -0.000823
   -4    0    2    2    5    0.000154    0.000136
   -4    0    2    3    5   -0.000044    0.000105
   -4    0    2    4    5    0.000708    0.000299
   -4    0    2    5    5   -0.002557   -0.000272
   -4    0    3    1    1    0.005056   -0.000835
   -4    0    3    2    1   -0.005222    0.003482
   -4    0    3    3    1    0.003659    0.000766
   -4    0    3    4    1    0.003713   -0.000302
   -4    0    3    5    1   -0.003526    0.001850
   -4    0    3    1    2   -0.009740   -0.004993
   -4    0    3    2    2   -0.001608    0.000181
   -4    0    3    3    2   -0.004666   -0.000126
   -4    0    3    4    2    0.005816   -0.001145
   -4    0    3    5    2    0.006510    0.000718
   -4    0    3    1    3    0.007021   -0.000091
   -4    0    3    2    3   -0.003643    0.000293
   -4    0    3    3    3   -0.002969    0.000004
   -4    0    3    4    3    0.009530   -0.000092
   -4    0    3    5    3   -0.002254    0.000052
   -4    0    3    1    4    0.001948   -0.000224
   -4    0    3    2    4    0.006842    0.000884
   -4    0    3    3    4    0.008494    0.000069
   -4    0    3    4    4    0.003478    0.000671
   -4    0    3    5    4    0.002716    0.000773
   -4    0    3    1    5   -0.004105   -0.000352
   -4    0    3    2    5    0.005519   -0.000800
   -4    0    3    3    5   -0.002204   -0.000099
   -4    0    3    4    5    0.002181   -0.000743
   -4    0    3    5    5   -0.001336   -0.000019
   -4    0    4    1    1    0.015685    0.000000
   -4    0    4    2    1   -0.010428    0.008947
   -4    0    4    3    1   -0.005299    0.000847
   -4    0    4    4    1   -0.007530   -0.000005
   -4    0    4    5    1    0.000184    0.002182
   -4    0    4    1    2   -0.010428   -0.008947
   -4    0    4    2    2    0.029219    0.000000
   -4    0    4    3    2    0.000013    0.000608
   -4    0    4    4    2   -0.027288    0.001798
   -4    0    4    5    2   -0.000186   -0.000572
   -4    0    4    1    3   -0.005299   -0.000847
   -4    0    4    2    3    0.000013   -0.000608
   -4    0    4    3    3    0.005068    0.000000
   -4    0    4    4    3   -0.000141   -0.001010
   -4    0    4    5    3    0.005197    0.000059
   -4    0    4    1    4   -0.007530    0.000005
   -4    0    4    2    4   -0.027288   -0.001798
   -4    0    4    3    4   -0.000141    0.001010
   -4    0    4    4    4    0.002251   -0.000000
   -4    0    4    5    4    0.000070   -0.000337
   -4    0    4    1    5    0.000184   -0.002182
   -4    0    4    2    5   -0.000186    0.000572
   -4    0    4    3    5    0.005197   -0.000059
   -4    0    4    4    5    0.000070    0.000337
   -4    0    4    5    5    0.005093    0.000000
   -4    1   -1    1    1   -0.011163   -0.000411
   -4    1   -1    2    1   -0.003112    0.000373
   -4    1   -1    3    1    0.008886    0.005943
   -4    1   -1    4    1   -0.002405    0.001995
   -4    1   -1    5    1    0.001409    0.001185
   -4    1   -1    1    2   -0.007412   -0.004450
   -4    1   -1    2    2    0.001340    0.000115
   -4    1   -1    3    2   -0.000341    0.000301
   -4    1   -1    4    2    0.000027   -0.000531
   -4    1   -1    5    2    0.003895   -0.000018
   -4    1   -1    1    3    0.013405   -0.000534
   -4    1   -1    2    3   -0.000186   -0.000386
   -4    1   -1    3    3    0.024641    0.000219
   -4    1   -1    4    3   -0.013016    0.001493
   -4    1   -1    5    3   -0.000184    0.000114
   -4    1   -1    1    4   -0.003196   -0.000876
   -4    1   -1    2    4    0.000913    0.000661
   -4    1   -1    3    4   -0.010461   -0.001118
   -4    1   -1    4    4   -0.003687   -0.000164
   -4    1   -1    5    4   -0.000960    0.000694
   -4    1   -1    1    5   -0.001047    0.000561
   -4    1   -1    2    5    0.004311   -0.000036
   -4    1   -1    3    5   -0.000050    0.000345
   -4    1   -1    4    5    0.000527   -0.000755
   -4    1   -1    5    5    0.001258    0.000242
   -4    1    0    1    1    0.002539    0.000685
   -4    1    0    2    1   -0.000317   -0.001985
   -4    1    0    3    1   -0.013366    0.007904
   -4    1    0    4    1    0.000265   -0.001228
   -4    1    0    5    1   -0.002962   -0.002409
   -4    1    0    1    2   -0.002056   -0.002487
   -4    1    0    2    2   -0.001016   -0.000380
   -4    1    0    3    2   -0.006161    0.001026
   -4    1    0    4    2    0.001588    0.001427
   -4    1    0    5    2    0.001930   -0.000016
   -4    1    0    1    3   -0.006828   -0.003536
   -4    1    0    2    3   -0.006567   -0.001536
   -4    1    0    3    3   -0.000968    0.000032
   -4    1    0    4    3   -0.005853   -0.000566
   -4    1    0    5    3   -0.004320   -0.000359
   -4    1    0    1    4    0.001832    0.000271
   -4    1    0    2    4    0.001387   -0.000796
   -4    1    0    3    4   -0.008494   -0.000022
   -4    1    0    4    4    0.006016   -0.000128
   -4    1    0    5    4    0.014116    0.000209
   -4    1    0    1    5   -0.001960    0.002035
   -4    1    0    2    5    0.002021    0.000047
   -4    1    0    3    5   -0.004180    0.000342
   -4    1    0    4    5    0.013414   -0.000634
   -4    1    0    5    5   -0.002899   -0.000208
   -4    1    1    1    1    0.000413   -0.000445
   -4    1    1    2    1   -0.003105   -0.004160
   -4    1    1    3    1    0.003225    0.007082
   -4    1    1    4    1    0.005859    0.001446
   -4    1    1    5    1   -0.007198   -0.003806
   -4    1    1    1    2   -0.005116    0.000514
   -4    1    1    2    2   -0.001450   -0.000030
   -4    1    1    3    2    0.000953    0.000141
   -4    1    1    4    2    0.010674   -0.001217
   -4    1    1    5    2   -0.006143   -0.000306
   -4    1    1    1    3    0.007228   -0.002905
   -4    1    1    2    3    0.000758   -0.000494
   -4    1    1    3    3   -0.003312    0.000005
   -4    1    1    4    3    0.000187    0.002115
   -4    1    1    5    3    0.000625    0.000665
   -4    1    1    1    4    0.004027   -0.000632
   -4    1    1    2    4    0.009817    0.000220
   -4    1    1    3    4    0.000186   -0.001359
   -4    1    1    4    4   -0.003433    0.000327
   -4    1    1    5    4    0.003911    0.000653
   -4    1    1    1    5   -0.010853    0.002225
   -4    1    1    2    5   -0.006370   -0.000247
   -4    1    1    3    5    0.001262   -0.000312
   -4    1    1    4    5    0.003535   -0.000020
   -4    1    1    5    5   -0.001709    0.000143
   -4    1    2    1    1    0.000631    0.000720
   -4    1    2    2    1   -0.005142   -0.008737
   -4    1    2    3    1    0.002628    0.003333
   -4    1    2    4    1   -0.005679    0.000412
   -4    1    2    5    1   -0.009585   -0.003402
   -4    1    2    1    2   -0.006202    0.003523
   -4    1    2    2    2   -0.003132   -0.000363
   -4    1    2    3    2    0.000659    0.000110
   -4    1    2    4    2    0.000221    0.000136
   -4    1    2    5    2   -0.001048   -0.000032
   -4    1    2    1    3    0.003489   -0.000085
   -4    1    2    2    3    0.001447   -0.000702
   -4    1    2    3    3   -0.001661   -0.000210
   -4    1    2    4    3    0.010092   -0.000648
   -4    1    2    5    3    0.006756    0.000423
   -4    1    2    1    4   -0.004012   -0.000971
   -4    1    2    2    4   -0.000604    0.000943
   -4    1    2    3    4    0.009685    0.000186
   -4    1    2    4    4   -0.003301   -0.000038
   -4    1    2    5    4   -0.004663    0.000484
   -4    1    2    1    5   -0.008407    0.002297
   -4    1    2    2    5   -0.000775   -0.000090
   -4    1    2    3    5    0.006276   -0.000200
   -4    1    2    4    5   -0.003251   -0.001118
   -4    1    2    5    5   -0.001583   -0.000109
   -4    1    3    1    1    0.001954   -0.000248
   -4    1    3    2    1    0.011001   -0.006366
   -4    1    3    3    1   -0.000714   -0.000215
   -4    1    3    4    1   -0.000744   -0.001152
   -4    1    3    5    1   -0.001393   -0.001718
   -4    1    3    1    2    0.006628    0.001645
   -4    1    3    2    2   -0.000029    0.000427
   -4    1    3    3    2   -0.006611   -0.001113
   -4    1    3    4    2   -0.007791    0.001339
   -4    1    3    5    2    0.004491   -0.000344
   -4    1    3    1    3    0.001833    0.004164
   -4    1    3    2    3   -0.005899    0.000983
   -4    1    3    3    3   -0.001132   -0.000037
   -4    1    3    4    3    0.001528   -0.000531
   -4    1    3    5    3   -0.002003   -0.000007
   -4    1    3    1    4   -0.001977    0.002127
   -4    1    3    2    4   -0.006991   -0.001787
   -4    1    3    3    4    0.002204    0.001042
   -4    1    3    4    4    0.006120   -0.000262
   -4    1    3    5    4   -0.012517   -0.001239
   -4    1    3    1    5   -0.004185    0.001051
   -4    1    3    2    5    0.004017    0.000038
   -4    1    3    3    5   -0.002291    0.000209
   -4    1    3    4    5   -0.014209    0.001963
   -4    1    3    5    5   -0.002995    0.000120
   -4    1    4    1    1   -0.011646   -0.000748
   -4    1    4    2    1   -0.006482   -0.006654
   -4    1    4    3    1    0.001957    0.000264
   -4    1    4    4    1    0.003323    0.000368
   -4    1    4    5    1   -0.000092    0.000291
   -4    1    4    1    2   -0.016630    0.000379
   -4    1    4    2    2    0.025092    0.000162
   -4    1    4    3    2   -0.000308   -0.000390
   -4    1    4    4    2   -0.010805   -0.000032
   -4    1    4    5    2    0.000221    0.000526
   -4    1    4    1    3    0.006664    0.003279
   -4    1    4    2    3    0.000112    0.000359
   -4    1    4    3    3    0.001353    0.000055
   -4    1    4    4    3    0.000573    0.000127
   -4    1    4    5    3   -0.004113   -0.000095
   -4    1    4    1    4    0.004375   -0.001675
   -4    1    4    2    4   -0.012551   -0.000174
   -4    1    4    3    4   -0.000473   -0.000428
   -4    1    4    4    4   -0.003961    0.000571
   -4    1    4    5    4   -0.000527    0.000334
   -4    1    4    1    5   -0.000059    0.000482
   -4    1    4    2    5    0.000011   -0.000470
   -4    1    4    3    5   -0.003915   -0.000149
   -4    1    4    4    5    0.000208   -0.000656
   -4    1    4    5    5    0.001255   -0.000039
   -4    2   -2    1    1    0.003308   -0.000300
   -4    2   -2    2    1    0.000221    0.000110
   -4    2   -2    3    1   -0.000784   -0.001590
   -4    2   -2    4    1    0.002287   -0.000823
   -4    2   -2    5    1    0.000023   -0.000567
   -4    2   -2    1    2    0.005368    0.005435
   -4    2   -2    2    2   -0.006114   -0.000116
   -4    2   -2    3    2    0.000252    0.000046
   -4    2   -2    4    2   -0.000235   -0.000089
   -4    2   -2    5    2   -0.000655   -0.000200
   -4    2   -2    1    3   -0.002895   -0.003897
   -4    2   -2    2    3   -0.000011    0.000345
   -4    2   -2    3    3   -0.000689   -0.000416
   -4    2   -2    4    3   -0.000490   -0.000024
   -4    2   -2    5    3   -0.000005   -0.000130
   -4    2   -2    1    4   -0.000201    0.000687
   -4    2   -2    2    4   -0.000113   -0.000460
   -4    2   -2    3    4   -0.001161   -0.000086
   -4    2   -2    4    4    0.000871    0.000759
   -4    2   -2    5    4   -0.000083   -0.000380
   -4    2   -2    1    5    0.000206   -0.000985
   -4    2   -2    2    5   -0.001091   -0.000056
   -4    2   -2    3    5    0.000278   -0.000000
   -4    2   -2    4    5   -0.000081    0.000625
   -4    2   -2    5    5   -0.006106    0.000073
   -4    2   -1    1    1    0.000899    0.001166
   -4    2   -1    2    1   -0.002456    0.001281
   -4    2   -1    3    1   -0.008667   -0.004322
   -4    2   -1    4    1   -0.003702    0.000343
   -4    2   -1    5    1   -0.001867    0.000525
   -4    2   -1    1    2    0.001762    0.004163
   -4    2   -1    2    2    0.002107    0.000051
   -4    2   -1    3    2    0.001153    0.000289
   -4    2   -1    4    2   -0.000242   -0.000545
   -4    2   -1    5    2   -0.001903   -0.000372
   -4    2   -1    1    3   -0.014358   -0.002181
   -4    2   -1    2    3    0.001093    0.000670
   -4    2   -1    3    3   -0.000859   -0.000595
   -4    2   -1    4    3   -0.006311    0.001397
   -4    2   -1    5    3   -0.006213   -0.000257
   -4    2   -1    1    4   -0.002218   -0.001075
   -4    2   -1    2    4   -0.000825    0.000555
   -4    2   -1    3    4   -0.005072   -0.000731
   -4    2   -1    4    4   -0.003318   -0.000515
   -4    2   -1    5    4    0.002108    0.000491
   -4    2   -1    1    5    0.000798   -0.001221
   -4    2   -1    2    5   -0.002025    0.000128
   -4    2   -1    3    5   -0.005980    0.000049
   -4    2   -1    4    5    0.001053   -0.000316
   -4    2   -1    5    5    0.004795   -0.000107
   -4    2    0    1    1   -0.003419    0.000114
   -4    2    0    2    1    0.009560    0.002963
   -4    2    0    3    1   -0.005213   -0.003737
   -4    2    0    4    1    0.005460   -0.000493
   -4    2    0    5    1    0.009361    0.001224
   -4    2    0    1    2    0.012939    0.004362
   -4    2    0    2    2   -0.002996    0.000086
   -4    2    0    3    2    0.000366   -0.000141
   -4    2    0    4    2    0.012918   -0.001243
   -4    2    0    5    2    0.000403   -0.000129
   -4    2    0    1    3   -0.008507   -0.002800
   -4    2    0    2    3   -0.000971    0.001084
   -4    2    0    3    3   -0.002465   -0.000340
   -4    2    0    4    3   -0.011377   -0.000342
   -4    2    0    5    3   -0.003032    0.000154
   -4    2    0    1    4    0.004273    0.000600
   -4    2    0    2    4    0.011960    0.000854
   -4    2    0    3    4   -0.011838   -0.000080
   -4    2    0    4    4    0.000957    0.000194
   -4    2    0    5    4    0.009108    0.000714
   -4    2    0    1    5    0.007662   -0.000769
   -4    2    0    2    5    0.000610    0.000270
   -4    2    0    3    5   -0.002240   -0.000247
   -4    2    0    4    5    0.009815   -0.001016
   -4    2    0    5    5   -0.002388   -0.000055
   -4    2    1    1    1   -0.007047    0.000575
   -4    2    1    2    1    0.009074    0.003109
   -4    2    1    3    1   -0.007737   -0.004107
   -4    2    1    4    1   -0.000422   -0.000580
   -4    2    1    5    1   -0.001744    0.001793
   -4    2    1    1    2    0.011966    0.002244
   -4    2    1    2    2   -0.002243   -0.000265
   -4    2    1    3    2    0.006244    0.000579
   -4    2    1    4    2    0.005149   -0.000054
   -4    2    1    5    2   -0.000667    0.000311
   -4    2    1    1    3   -0.012696   -0.001007
   -4    2    1    2    3    0.006586    0.000238
   -4    2    1    3    3   -0.001771   -0.000420
   -4    2    1    4    3    0.007129   -0.000066
   -4    2    1    5    3    0.001136   -0.000363
   -4    2    1    1    4    0.000222    0.000052
   -4    2    1    2    4    0.007315    0.000578
   -4    2    1    3    4    0.005442    0.000377
   -4    2    1    4    4    0.003360    0.000180
   -4    2    1    5    4    0.000661   -0.000141
   -4    2    1    1    5   -0.002174   -0.000498
   -4    2    1    2    5   -0.001449   -0.000316
   -4    2    1    3    5    0.000749    0.000255
   -4    2    1    4    5   -0.000793    0.000168
   -4    2    1    5    5   -0.003246   -0.000070
   -4    2    2    1    1   -0.002445    0.000184
   -4    2    2    2    1    0.004302    0.007069
   -4    2    2    3    1   -0.008715   -0.002688
   -4    2    2    4    1   -0.004147    0.000185
   -4    2    2    5    1    0.007265    0.002620
   -4    2    2    1    2    0.010673    0.000987
   -4    2    2    2    2   -0.002520   -0.000245
   -4    2    2    3    2   -0.000348    0.000615
   -4    2    2    4    2   -0.010858    0.001426
   -4    2    2    5    2    0.002577   -0.000263
   -4    2    2    1    3   -0.012365   -0.003338
   -4    2    2    2    3   -0.000881    0.000260
   -4    2    2    3    3   -0.002723    0.000065
   -4    2    2    4    3    0.012124   -0.001363
   -4    2    2    5    3   -0.000634   -0.000021
   -4    2    2    1    4   -0.005526    0.000600
   -4    2    2    2    4   -0.011823   -0.002149
   -4    2    2    3    4    0.013003    0.000997
   -4    2    2    4    4   -0.000605    0.000353
   -4    2    2    5    4   -0.010066   -0.000368
   -4    2    2    1    5    0.009864   -0.002819
   -4    2    2    2    5    0.002463    0.000368
   -4    2    2    3    5   -0.000238    0.000112
   -4    2    2    4    5   -0.008569    0.000371
   -4    2    2    5    5   -0.002439   -0.000357
   -4    2    3    1    1   -0.000769    0.001803
   -4    2    3    2    1    0.010117    0.004014
   -4    2    3    3    1    0.002626    0.000409
   -4    2    3    4    1    0.001525   -0.000281
   -4    2    3    5    1   -0.000160    0.000519
   -4    2    3    1    2    0.012926    0.002741
   -4    2    3    2    2   -0.001167   -0.000908
   -4    2    3    3    2    0.000872    0.000500
   -4    2    3    4    2   -0.005849    0.000989
   -4    2    3    5    2    0.006382    0.000569
   -4    2    3    1    3   -0.001127   -0.005010
   -4    2    3    2    3    0.001095   -0.000012
   -4    2    3    3    3    0.002106   -0.000307
   -4    2    3    4    3   -0.000515   -0.000207
   -4    2    3    5    3    0.001801    0.000335
   -4    2    3    1    4    0.003776    0.000215
   -4    2    3    2    4   -0.006190    0.000225
   -4    2    3    3    4   -0.000690   -0.000071
   -4    2    3    4    4   -0.001397   -0.000667
   -4    2    3    5    4   -0.001520   -0.000821
   -4    2    3    1    5   -0.001269   -0.000154
   -4    2    3    2    5    0.005826   -0.000318
   -4    2    3    3    5    0.002055   -0.000138
   -4    2    3    4    5   -0.001612    0.000623
   -4    2    3    5    5    0.004764    0.000078
   -4    2    4    1    1    0.005007   -0.000361
   -4    2    4    2    1   -0.000556    0.001708
   -4    2    4    3    1   -0.000600   -0.000830
   -4    2    4    4    1    0.000555    0.000462
   -4    2    4    5    1   -0.000742   -0.000631
   -4    2    4    1    2    0.004748    0.004984
   -4    2    4    2    2   -0.001095   -0.000453
   -4    2    4    3    2    0.000147    0.000246
   -4    2    4    4    2   -0.001039    0.000062
   -4    2    4    5    2    0.000129   -0.000270
   -4    2    4    1    3   -0.004249   -0.004216
   -4    2    4    2    3   -0.000043    0.000075
   -4    2    4    3    3   -0.006044   -0.000061
   -4    2    4    4    3    0.000282   -0.000366
   -4    2    4    5    3    0.000837    0.000044
   -4    2    4    1    4   -0.002088   -0.000057
   -4    2    4    2    4   -0.000040   -0.000655
   -4    2    4    3    4   -0.000610    0.000294
   -4    2    4    4    4   -0.000366    0.000877
   -4    2    4    5    4    0.000152    0.000211
   -4    2    4    1    5    0.001292   -0.001118
   -4    2    4    2    5   -0.000191    0.000255
   -4    2    4    3    5    0.000955    0.000154
   -4    2    4    4    5   -0.000097    0.000038
   -4    2    4    5    5   -0.006095   -0.000002
   -4    3   -3    1    1   -0.002919   -0.000610
   -4    3   -3    2    1   -0.000032   -0.000065
   -4    3   -3    3    1   -0.000269    0.001907
   -4    3   -3    4    1   -0.002837    0.000398
   -4    3   -3    5    1    0.000145    0.000705
   -4    3   -3    1    2   -0.001342   -0.003712
   -4    3   -3    2    2   -0.000496    0.000134
   -4    3   -3    3    2    0.000074   -0.000373
   -4    3   -3    4    2   -0.000358   -0.000108
   -4    3   -3    5    2   -0.006824   -0.000055
   -4    3   -3    1    3   -0.001264    0.002051
   -4    3   -3    2    3    0.000022   -0.000015
   -4    3   -3    3    3    0.000449    0.000297
   -4    3   -3    4    3    0.002278    0.000966
   -4    3   -3    5    3    0.000071    0.000031
   -4    3   -3    1    4   -0.002470    0.000475
   -4    3   -3    2    4    0.000088    0.000042
   -4    3   -3    3    4    0.003032   -0.000879
   -4    3   -3    4    4    0.000703   -0.000035
   -4    3   -3    5    4   -0.000277    0.000434
   -4    3   -3    1    5   -0.000715    0.000105
   -4    3   -3    2    5   -0.006459    0.000111
   -4    3   -3    3    5   -0.000175   -0.000021
   -4    3   -3    4    5    0.000582   -0.000338
   -4    3   -3    5    5   -0.000328    0.000214
   -4    3   -2    1    1   -0.000544    0.000244
   -4    3   -2    2    1    0.001161   -0.000690
   -4    3   -2    3    1   -0.000524    0.000986
   -4    3   -2    4    1   -0.000381   -0.000462
   -4    3   -2    5    1    0.000067   -0.000470
   -4    3   -2    1    2   -0.001639   -0.003573
   -4    3   -2    2    2   -0.001605   -0.000387
   -4    3   -2    3    2   -0.001179    0.000299
   -4    3   -2    4    2    0.001797    0.000794
   -4    3   -2    5    2    0.001069    0.000064
   -4    3   -2    1    3    0.000207    0.002862
   -4    3   -2    2    3   -0.001153   -0.000685
   -4    3   -2    3    3    0.000752    0.000597
   -4    3   -2    4    3    0.000066   -0.001152
   -4    3   -2    5    3    0.004217    0.000009
   -4    3   -2    1    4   -0.000044   -0.000041
   -4    3   -2    2    4    0.002089   -0.000667
   -4    3   -2    3    4   -0.000902    0.000862
   -4    3   -2    4    4   -0.001542   -0.000284
   -4    3   -2    5    4    0.000565   -0.000018
   -4    3   -2    1    5    0.000239    0.000194
   -4    3   -2    2    5    0.001215    0.000202
   -4    3   -2    3    5    0.003967   -0.000237
   -4    3   -2    4    5   -0.000016   -0.000349
   -4    3   -2    5    5    0.000767   -0.000169
   -4    3   -1    1    1   -0.001696   -0.001098
   -4    3   -1    2    1    0.001549   -0.001380
   -4    3   -1    3    1   -0.000293    0.001562
   -4    3   -1    4    1   -0.002686    0.001147
   -4    3   -1    5    1    0.001203   -0.000028
   -4    3   -1    1    2   -0.001488   -0.002944
   -4    3   -1    2    2    0.002255   -0.000239
   -4    3   -1    3    2    0.002201   -0.000283
   -4    3   -1    4    2   -0.003716   -0.000525
   -4    3   -1    5    2   -0.001198   -0.000198
   -4    3   -1    1    3   -0.002194    0.003029
   -4    3   -1    2    3    0.002078   -0.000477
   -4    3   -1    3    3    0.004678    0.000533
   -4    3   -1    4    3   -0.000641    0.001723
   -4    3   -1    5    3   -0.005968    0.000433
   -4    3   -1    1    4   -0.003694   -0.000066
   -4    3   -1    2    4   -0.004324    0.000105
   -4    3   -1    3    4    0.000231   -0.001343
   -4    3   -1    4    4   -0.002232    0.000571
   -4    3   -1    5    4    0.009809    0.000020
   -4    3   -1    1    5   -0.000814    0.000532
   -4    3   -1    2    5   -0.000703   -0.000088
   -4    3   -1    3    5   -0.006228   -0.000275
   -4    3   -1    4    5    0.013845   -0.000210
   -4    3   -1    5    5   -0.000676    0.000233
   -4    3    0    1    1    0.003948    0.000310
   -4    3    0    2    1   -0.000767   -0.001113
   -4    3    0    3    1   -0.013645    0.000510
   -4    3    0    4    1    0.004287   -0.000336
   -4    3    0    5    1    0.000812   -0.000245
   -4    3    0    1    2   -0.002622   -0.003731
   -4    3    0    2    2   -0.001266   -0.000274
   -4    3    0    3    2   -0.002164   -0.000121
   -4    3    0    4    2    0.004870    0.000482
   -4    3    0    5    2    0.005088   -0.000239
   -4    3    0    1    3   -0.011757    0.003350
   -4    3    0    2    3   -0.001798   -0.000573
   -4    3    0    3    3   -0.003112    0.000339
   -4    3    0    4    3   -0.004312   -0.000590
   -4    3    0    5    3   -0.003376   -0.000444
   -4    3    0    1    4    0.005486   -0.000283
   -4    3    0    2    4    0.005295    0.000201
   -4    3    0    3    4   -0.005168    0.000157
   -4    3    0    4    4    0.003042   -0.000390
   -4    3    0    5    4    0.014726    0.000946
   -4    3    0    1    5    0.000516   -0.000611
   -4    3    0    2    5    0.006509    0.000428
   -4    3    0    3    5   -0.004692    0.000382
   -4    3    0    4    5    0.012898   -0.001227
   -4    3    0    5    5   -0.000606    0.000014
   -4    3    1    1    1    0.003298   -0.000481
   -4    3    1    2    1    0.013486   -0.000828
   -4    3    1    3    1   -0.000633    0.001242
   -4    3    1    4    1   -0.004191   -0.000361
   -4    3    1    5    1    0.001345   -0.001192
   -4    3    1    1    2    0.012185   -0.003393
   -4    3    1    2    2   -0.002598    0.000535
   -4    3    1    3    2   -0.002248   -0.000356
   -4    3    1    4    2   -0.004957    0.000758
   -4    3    1    5    2    0.003914   -0.000531
   -4    3    1    1    3    0.002897    0.003115
   -4    3    1    2    3   -0.001727   -0.000086
   -4    3    1    3    3   -0.001428    0.000002
   -4    3    1    4    3    0.004907   -0.000100
   -4    3    1    5    3   -0.005652    0.001072
   -4    3    1    1    4   -0.005359    0.000990
   -4    3    1    2    4   -0.004822   -0.001246
   -4    3    1    3    4    0.005030    0.000636
   -4    3    1    4    4    0.003686   -0.000122
   -4    3    1    5    4   -0.012189   -0.000139
   -4    3    1    1    5   -0.000660    0.000276
   -4    3    1    2    5    0.004698    0.000427
   -4    3    1    3    5   -0.006294   -0.000888
   -4    3    1    4    5   -0.015421    0.000773
   -4    3    1    5    5   -0.001059    0.000064
   -4    3    2    1    1   -0.000983   -0.000936
   -4    3    2    2    1    0.001756   -0.002888
   -4    3    2    3    1   -0.000873   -0.000379
   -4    3    2    4    1    0.002866   -0.000228
   -4    3    2    5    1    0.000154    0.000745
   -4    3    2    1    2    0.000375   -0.002769
   -4    3    2    2    2    0.004843    0.000477
   -4    3    2    3    2    0.002312   -0.000579
   -4    3    2    4    2    0.000696    0.000490
   -4    3    2    5    2    0.006030   -0.000650
   -4    3    2    1    3    0.001260    0.004015
   -4    3    2    2    3    0.002180    0.000183
   -4    3    2    3    3    0.002020   -0.000138
   -4    3    2    4    3   -0.003888   -0.000369
   -4    3    2    5    3    0.001321    0.000028
   -4    3    2    1    4    0.003949   -0.000694
   -4    3    2    2    4   -0.000899   -0.000255
   -4    3    2    3    4   -0.003901   -0.000035
   -4    3    2    4    4   -0.002681    0.000466
   -4    3    2    5    4   -0.013453   -0.001016
   -4    3    2    1    5   -0.000026   -0.000515
   -4    3    2    2    5    0.006431    0.000577
   -4    3    2    3    5    0.000618   -0.000193
   -4    3    2    4    5   -0.010541    0.000874
   -4    3    2    5    5   -0.000944    0.000131
   -4    3    3    1    1   -0.001500   -0.000288
   -4    3    3    2    1   -0.001027   -0.000625
   -4    3    3    3    1   -0.001514    0.001146
   -4    3    3    4    1    0.000171    0.000291
   -4    3    3    5    1    0.000741   -0.000339
   -4    3    3    1    2    0.000857   -0.003363
   -4    3    3    2    2    0.001066    0.000831
   -4    3    3    3    2   -0.001179   -0.000001
   -4    3    3    4    2   -0.001201    0.000221
   -4    3    3    5    2   -0.004406    0.000153
   -4    3    3    1    3    0.001531    0.002570
   -4    3    3    2    3   -0.000916   -0.000111
   -4    3    3    3    3   -0.001687   -0.000150
   -4    3    3    4    3    0.001619    0.000694
   -4    3    3    5    3   -0.001100    0.000204
   -4    3    3    1    4   -0.000065    0.000379
   -4    3    3    2    4   -0.000082   -0.000315
   -4    3    3    3    4    0.001820   -0.000545
   -4    3    3    4    4   -0.001061   -0.000367
   -4    3    3    5    4    0.000953    0.000127
   -4    3    3    1    5   -0.000213    0.000356
   -4    3    3    2    5   -0.004025   -0.000042
   -4    3    3    3    5   -0.001214   -0.000181
   -4    3    3    4    5   -0.001309    0.000105
   -4    3    3    5    5    0.001044   -0.000026
   -4    3    4    1    1   -0.002288   -0.000849
   -4    3    4    2    1    0.001420   -0.000990
   -4    3    4    3    1   -0.000085    0.000333
   -4    3    4    4    1    0.002815   -0.000536
   -4    3    4    5    1   -0.000023   -0.000235
   -4    3    4    1    2    0.000271   -0.003490
   -4    3    4    2    2    0.000679    0.000389
   -4    3    4    3    2    0.000060   -0.000162
   -4    3    4    4    2    0.003185    0.000566
   -4    3    4    5    2   -0.000103   -0.000004
   -4    3    4    1    3    0.000951    0.003078
   -4    3    4    2    3    0.000030    0.000116
   -4    3    4    3    3   -0.000696    0.000221
   -4    3    4    4    3    0.000219   -0.000000
   -4    3    4    5    3    0.006684   -0.000111
   -4    3    4    1    4    0.002997   -0.000368
   -4    3    4    2    4    0.002524   -0.000506
   -4    3    4    3    4    0.000077   -0.000110
   -4    3    4    4    4    0.000098    0.000166
   -4    3    4    5    4   -0.000039   -0.000321
   -4    3    4    1    5   -0.000616    0.000277
   -4    3    4    2    5    0.000129    0.000214
   -4    3    4    3    5    0.006497   -0.000155
   -4    3    4    4    5   -0.000232    0.000419
   -4    3    4    5    5   -0.000408    0.000072
   -4    4   -4    1    1    0.009010   -0.000000
   -4    4   -4    2    1    0.000155   -0.001584
   -4    4   -4    3    1    0.000059    0.000641
   -4    4   -4    4    1    0.000094   -0.000750
   -4    4   -4    5    1    0.000031   -0.000252
   -4    4   -4    1    2    0.000155    0.001584
   -4    4   -4    2    2   -0.006529   -0.000000
   -4    4   -4    3    2   -0.000102    0.000228
   -4    4   -4    4    2   -0.000345   -0.000075
   -4    4   -4    5    2    0.000027    0.000181
   -4    4   -4    1    3    0.000059   -0.000641
   -4    4   -4    2    3   -0.000102   -0.000228
   -4    4   -4    3    3   -0.006339   -0.000000
   -4    4   -4    4    3   -0.000126    0.000092
   -4    4   -4    5    3   -0.000013   -0.000002
   -4    4   -4    1    4    0.000094    0.000750
   -4    4   -4    2    4   -0.000345    0.000075
   -4    4   -4    3    4   -0.000126   -0.000092
   -4    4   -4    4    4    0.009297   -0.000000
   -4    4   -4    5    4    0.000133   -0.000679
   -4    4   -4    1    5    0.000031    0.000252
   -4    4   -4    2    5    0.000027   -0.000181
   -4    4   -4    3    5   -0.000013    0.000002
   -4    4   -4    4    5    0.000133    0.000679
   -4    4   -4    5    5   -0.006801   -0.000000
   -4    4   -3    1    1    0.000981   -0.000370
   -4    4   -3    2    1   -0.000915   -0.001421
   -4    4   -3    3    1   -0.000297    0.000771
   -4    4   -3    4    1   -0.000141    0.000374
   -4    4   -3    5    1   -0.003407    0.000946
   -4    4   -3    1    2    0.000628    0.001542
   -4    4   -3    2    2   -0.000223    0.000420
   -4    4   -3    3    2    0.006460    0.000021
   -4    4   -3    4    2    0.000366   -0.000045
   -4    4   -3    5    2   -0.000048   -0.000052
   -4    4   -3    1    3    0.000366   -0.001032
   -4    4   -3    2    3    0.006546    0.000304
   -4    4   -3    3    3    0.000101   -0.000114
   -4    4   -3    4    3   -0.000237    0.000185
   -4    4   -3    5    3    0.000042   -0.000126
   -4    4   -3    1    4   -0.000343   -0.000899
   -4    4   -3    2    4    0.000195   -0.000288
   -4    4   -3    3    4    0.000420    0.000210
   -4    4   -3    4    4   -0.004429    0.000089
   -4    4   -3    5    4    0.000064    0.000628
   -4    4   -3    1    5   -0.002601   -0.001179
   -4    4   -3    2    5    0.000071   -0.000068
   -4    4   -3    3    5   -0.000018   -0.000005
   -4    4   -3    4    5   -0.000152   -0.000555
   -4    4   -3    5    5    0.000944   -0.000026
   -4    4   -2    1    1    0.002363    0.000027
   -4    4   -2    2    1   -0.000786   -0.001038
   -4    4   -2    3    1   -0.001454    0.001429
   -4    4   -2    4    1   -0.000049   -0.000641
   -4    4   -2    5    1    0.001873    0.000233
   -4    4   -2    1    2    0.000959    0.000881
   -4    4   -2    2    2   -0.006116    0.000350
   -4    4   -2    3    2    0.000641    0.000060
   -4    4   -2    4    2    0.000315   -0.000258
   -4    4   -2    5    2   -0.000069    0.000041
   -4    4   -2    1    3    0.001439   -0.001154
   -4    4   -2    2    3    0.000586    0.000014
   -4    4   -2    3    3   -0.005978   -0.000364
   -4    4   -2    4    3   -0.000157    0.000269
   -4    4   -2    5    3   -0.000053   -0.000251
   -4    4   -2    1    4    0.000333    0.000228
   -4    4   -2    2    4   -0.000648    0.000238
   -4    4   -2    3    4    0.000144   -0.000293
   -4    4   -2    4    4    0.002123   -0.000157
   -4    4   -2    5    4   -0.000167   -0.000114
   -4    4   -2    1    5   -0.000234    0.000119
   -4    4   -2    2    5    0.000036   -0.000089
   -4    4   -2    3    5    0.000095    0.000178
   -4    4   -2    4    5    0.000133   -0.000171
   -4    4   -2    5    5   -0.000797    0.000143
   -4    4   -1    1    1   -0.003567   -0.000283
   -4    4   -1    2    1   -0.001119   -0.000720
   -4    4   -1    3    1   -0.000576    0.000730
   -4    4   -1    4    1    0.000079    0.000459
   -4    4   -1    5    1    0.010414    0.000842
   -4    4   -1    1    2    0.000522    0.000532
   -4    4   -1    2    2    0.001126    0.000449
   -4    4   -1    3    2   -0.004246    0.000032
   -4    4   -1    4    2    0.000848    0.000612
   -4    4   -1    5    2    0.000072    0.000273
   -4    4   -1    1    3    0.000397   -0.001036
   -4    4   -1    2    3   -0.004234    0.000184
   -4    4   -1    3    3    0.001456   -0.000169
   -4    4   -1    4    3   -0.000688   -0.000513
   -4    4   -1    5    3    0.000036   -0.000261
   -4    4   -1    1    4   -0.000189   -0.000931
   -4    4   -1    2    4   -0.000100   -0.001177
   -4    4   -1    3    4    0.000509    0.000889
   -4    4   -1    4    4   -0.009598    0.000165
   -4    4   -1    5    4   -0.000093   -0.000680
   -4    4   -1    1    5    0.013990   -0.001315
   -4    4   -1    2    5   -0.000115   -0.000514
   -4    4   -1    3    5   -0.000078   -0.000062
   -4    4   -1    4    5   -0.000171    0.001025
   -4    4   -1    5    5    0.024405   -0.000162
   -4    4    0    1    1    0.005158   -0.000000
   -4    4    0    2    1    0.000536   -0.000395
   -4    4    0    3    1    0.000027    0.000672
   -4    4    0    4    1   -0.000159   -0.000068
   -4    4    0    5    1    0.034565    0.002634
   -4    4    0    1    2    0.000536    0.000395
   -4    4    0    2    2    0.005161   -0.000000
   -4    4    0    3    2    0.004914    0.000255
   -4    4    0    4    2   -0.000505   -0.001393
   -4    4    0    5    2    0.000119   -0.000145
   -4    4    0    1    3    0.000027   -0.000672
   -4    4    0    2    3    0.004914   -0.000255
   -4    4    0    3    3    0.005357   -0.000000
   -4    4    0    4    3    0.000053    0.000837
   -4    4    0    5    3   -0.000066   -0.000036
   -4    4    0    1    4   -0.000159    0.000068
   -4    4    0    2    4   -0.000505    0.001393
   -4    4    0    3    4    0.000053   -0.000837
   -4    4    0    4    4    0.014732   -0.000000
   -4    4    0    5    4    0.000244   -0.001080
   -4    4    0    1    5    0.034565   -0.002634
   -4    4    0    2    5    0.000119    0.000145
   -4    4    0    3    5   -0.000066    0.000036
   -4    4    0    4    5    0.000244    0.001080
   -4    4    0    5    5    0.028995    0.000000
   -4    4    1    1    1   -0.003567    0.000283
   -4    4    1    2    1    0.000522   -0.000532
   -4    4    1    3    1    0.000397    0.001036
   -4    4    1    4    1   -0.000189    0.000931
   -4    4    1    5    1    0.013990    0.001315
   -4    4    1    1    2   -0.001119    0.000720
   -4    4    1    2    2    0.001126   -0.000449
   -4    4    1    3    2   -0.004234   -0.000184
   -4    4    1    4    2   -0.000100    0.001177
   -4    4    1    5    2   -0.000115    0.000514
   -4    4    1    1    3   -0.000576   -0.000730
   -4    4    1    2    3   -0.004246   -0.000032
   -4    4    1    3    3    0.001456    0.000169
   -4    4    1    4    3    0.000509   -0.000889
   -4    4    1    5    3   -0.000078    0.000062
   -4    4    1    1    4    0.000079   -0.000459
   -4    4    1    2    4    0.000848   -0.000612
   -4    4    1    3    4   -0.000688    0.000513
   -4    4    1    4    4   -0.009598   -0.000165
   -4    4    1    5    4   -0.000171   -0.001025
   -4    4    1    1    5    0.010414   -0.000842
   -4    4    1    2    5    0.000072   -0.000273
   -4    4    1    3    5    0.000036    0.000261
   -4    4    1    4    5   -0.000093    0.000680
   -4    4    1    5    5    0.024405    0.000162
   -4    4    2    1    1    0.002363   -0.000027
   -4    4    2    2    1    0.000959   -0.000881
   -4    4    2    3    1    0.001439    0.001154
   -4    4    2    4    1    0.000333   -0.000228
   -4    4    2    5    1   -0.000234   -0.000119
   -4    4    2    1    2   -0.000786    0.001038
   -4    4    2    2    2   -0.006116   -0.000350
   -4    4    2    3    2    0.000586   -0.000014
   -4    4    2    4    2   -0.000648   -0.000238
   -4    4    2    5    2    0.000036    0.000089
   -4    4    2    1    3   -0.001454   -0.001429
   -4    4    2    2    3    0.000641   -0.000060
   -4    4    2    3    3   -0.005978    0.000364
   -4    4    2    4    3    0.000144    0.000293
   -4    4    2    5    3    0.000095   -0.000178
   -4    4    2    1    4   -0.000049    0.000641
   -4    4    2    2    4    0.000315    0.000258
   -4    4    2    3    4   -0.000157   -0.000269
   -4    4    2    4    4    0.002123    0.000157
   -4    4    2    5    4    0.000133    0.000171
   -4    4    2    1    5    0.001873   -0.000233
   -4    4    2    2    5   -0.000069   -0.000041
   -4    4    2    3    5   -0.000053    0.000251
   -4    4    2    4    5   -0.000167    0.000114
   -4    4    2    5    5   -0.000797   -0.000143
   -4    4    3    1    1    0.000981    0.000370
   -4    4    3    2    1    0.000628   -0.001542
   -4    4    3    3    1    0.000366    0.001032
   -4    4    3    4    1   -0.000343    0.000899
   -4    4    3    5    1   -0.002601    0.001179
   -4    4    3    1    2   -0.000915    0.001421
   -4    4    3    2    2   -0.000223   -0.000420
   -4    4    3    3    2    0.006546   -0.000304
   -4    4    3    4    2    0.000195    0.000288
   -4    4    3    5    2    0.000071    0.000068
   -4    4    3    1    3   -0.000297   -0.000771
   -4    4    3    2    3    0.006460   -0.000021
   -4    4    3    3    3    0.000101    0.000114
   -4    4    3    4    3    0.000420   -0.000210
   -4    4    3    5    3   -0.000018    0.000005
   -4    4    3    1    4   -0.000141   -0.000374
   -4    4    3    2    4    0.000366    0.000045
   -4    4    3    3    4   -0.000237   -0.000185
   -4    4    3    4    4   -0.004429   -0.000089
   -4    4    3    5    4   -0.000152    0.000555
   -4    4    3    1    5   -0.003407   -0.000946
   -4    4    3    2    5   -0.000048    0.000052
   -4    4    3    3    5    0.000042    0.000126
   -4    4    3    4    5    0.000064   -0.000628
   -4    4    3    5    5    0.000944    0.000026
   -4    4    4    1    1    0.009010    0.000000
   -4    4    4    2    1    0.000155   -0.001584
   -4    4    4    3    1    0.000059    0.000641
   -4    4    4    4    1    0.000094   -0.000750
   -4    4    4    5    1    0.000031   -0.000252
   -4    4    4    1    2    0.000155    0.001584
   -4    4    4    2    2   -0.006529    0.000000
   -4    4    4    3    2   -0.000102    0.000228
   -4    4    4    4    2   -0.000345   -0.000075
   -4    4    4    5    2    0.000027    0.000181
   -4    4    4    1    3    0.000059   -0.000641
   -4    4    4    2    3   -0.000102   -0.000228
   -4    4    4    3    3   -0.006339    0.000000
   -4    4    4    4    3   -0.000126    0.000092
   -4    4    4    5    3   -0.000013   -0.000002
   -4    4    4    1    4    0.000094    0.000750
   -4    4    4    2    4   -0.000345    0.000075
   -4    4    4    3    4   -0.000126   -0.000092
   -4    4    4    4    4    0.009297    0.000000
   -4    4    4    5    4    0.000133   -0.000679
   -4    4    4    1    5    0.000031    0.000252
   -4    4    4    2    5    0.000027   -0.000181
   -4    4    4    3    5   -0.000013    0.000002
   -4    4    4    4    5    0.000133    0.000679
   -4    4    4    5    5   -0.006801    0.000000
   -3   -4    3    1    1   -0.002765   -0.000906
   -3   -4    3    2    1   -0.001194    0.004206
   -3   -4    3    3    1   -0.001282   -0.003177
   -3   -4    3    4    1    0.002531   -0.000180
   -3   -4    3    5    1   -0.001355    0.000239
   -3   -4    3    1    2   -0.000881   -0.000549
   -3   -4    3    2    2    0.000671    0.000545
   -3   -4    3    3    2    0.000071    0.000025
   -3   -4    3    4    2   -0.002859   -0.000627
   -3   -4    3    5    2   -0.000192    0.000030
   -3   -4    3    1    3   -0.000672   -0.000333
[...]
    5   -3   -3    2    1    0.001005   -0.005373
    5   -3   -3    3    1    0.000443    0.005633
    5   -3   -3    4    1   -0.000456    0.000035
    5   -3   -3    5    1    0.000997   -0.000556
    5   -3   -3    1    2   -0.000818   -0.003350
    5   -3   -3    2    2    0.001291    0.000235
    5   -3   -3    3    2   -0.002175    0.000354
    5   -3   -3    4    2    0.001588    0.000631
    5   -3   -3    5    2   -0.001897    0.000385
    5   -3   -3    1    3   -0.000558    0.002420
    5   -3   -3    2    3   -0.001946    0.000247
    5   -3   -3    3    3    0.001285   -0.000272
    5   -3   -3    4    3   -0.001379    0.000942
    5   -3   -3    5    3   -0.001847    0.000179
    5   -3   -3    1    4    0.000619   -0.000718
    5   -3   -3    2    4    0.000646    0.000381
    5   -3   -3    3    4   -0.000617   -0.001397
    5   -3   -3    4    4   -0.000729   -0.000530
    5   -3   -3    5    4   -0.000388    0.000133
    5   -3   -3    1    5   -0.001932    0.000706
    5   -3   -3    2    5   -0.001810    0.000102
    5   -3   -3    3    5   -0.001673    0.000098
    5   -3   -3    4    5    0.000003   -0.000069
    5   -3   -3    5    5    0.001075    0.000145
    5   -3   -2    1    1   -0.004432   -0.000639
    5   -3   -2    2    1   -0.011871   -0.005590
    5   -3   -2    3    1   -0.011277    0.004623
    5   -3   -2    4    1    0.000344   -0.000184
    5   -3   -2    5    1   -0.002418   -0.000961
    5   -3   -2    1    2   -0.012045   -0.003092
    5   -3   -2    2    2   -0.001936    0.000403
    5   -3   -2    3    2    0.000730    0.000245
    5   -3   -2    4    2    0.009023   -0.002121
    5   -3   -2    5    2   -0.004017   -0.000093
    5   -3   -2    1    3   -0.012082    0.002926
    5   -3   -2    2    3    0.001124   -0.000177
    5   -3   -2    3    3   -0.001634   -0.000206
    5   -3   -2    4    3   -0.008922   -0.000363
    5   -3   -2    5    3   -0.004164   -0.000254
    5   -3   -2    1    4    0.000036    0.000379
    5   -3   -2    2    4    0.008517    0.001404
    5   -3   -2    3    4   -0.008667    0.000174
    5   -3   -2    4    4    0.003622    0.000678
    5   -3   -2    5    4    0.000217   -0.000455
    5   -3   -2    1    5   -0.003645    0.000323
    5   -3   -2    2    5   -0.004289    0.000164
    5   -3   -2    3    5   -0.004434    0.000050
    5   -3   -2    4    5    0.000298    0.000592
    5   -3   -2    5    5   -0.002078   -0.000237
    5   -3   -1    1    1   -0.009308    0.000836
    5   -3   -1    2    1   -0.000062   -0.005296
    5   -3   -1    3    1   -0.000419    0.004682
    5   -3   -1    4    1    0.000012    0.000160
    5   -3   -1    5    1   -0.000735    0.000464
    5   -3   -1    1    2    0.000786   -0.005467
    5   -3   -1    2    2    0.006726   -0.000224
    5   -3   -1    3    2   -0.003349   -0.000145
    5   -3   -1    4    2   -0.000666    0.000214
    5   -3   -1    5    2   -0.000005   -0.000331
    5   -3   -1    1    3    0.000276    0.004059
    5   -3   -1    2    3   -0.002944    0.000135
    5   -3   -1    3    3    0.006878   -0.000185
    5   -3   -1    4    3    0.000129   -0.000578
    5   -3   -1    5    3   -0.000056    0.000216
    5   -3   -1    1    4    0.000177   -0.000599
    5   -3   -1    2    4    0.000570    0.000441
    5   -3   -1    3    4   -0.000555    0.000819
    5   -3   -1    4    4   -0.006735   -0.000301
    5   -3   -1    5    4    0.000036    0.001253
    5   -3   -1    1    5   -0.005023    0.000247
    5   -3   -1    2    5   -0.000038    0.000499
    5   -3   -1    3    5   -0.000054   -0.000082
    5   -3   -1    4    5   -0.000107   -0.001442
    5   -3   -1    5    5    0.008157   -0.000126
    5   -3    0    1    1   -0.003462   -0.000538
    5   -3    0    2    1    0.011404   -0.004057
    5   -3    0    3    1    0.011409    0.004516
    5   -3    0    4    1   -0.000396    0.000860
    5   -3    0    5    1   -0.000435   -0.001601
    5   -3    0    1    2    0.011592   -0.004357
    5   -3    0    2    2   -0.001686   -0.000213
    5   -3    0    3    2    0.000687   -0.000199
    5   -3    0    4    2   -0.008502    0.001574
    5   -3    0    5    2    0.004173    0.000119
    5   -3    0    1    3    0.012229    0.003448
    5   -3    0    2    3    0.001049    0.000288
    5   -3    0    3    3   -0.001484    0.000231
    5   -3    0    4    3    0.009416    0.000526
    5   -3    0    5    3    0.004197    0.000133
    5   -3    0    1    4   -0.000376    0.000439
    5   -3    0    2    4   -0.008635   -0.001812
    5   -3    0    3    4    0.008888   -0.000821
    5   -3    0    4    4    0.002106    0.000513
    5   -3    0    5    4   -0.000316   -0.001068
    5   -3    0    1    5   -0.005057    0.001113
    5   -3    0    2    5    0.004235   -0.000191
    5   -3    0    3    5    0.004242   -0.000378
    5   -3    0    4    5   -0.000135    0.000767
    5   -3    0    5    5   -0.002012    0.000006
    5   -3    1    1    1    0.000919    0.001040
    5   -3    1    2    1    0.000284   -0.006218
    5   -3    1    3    1    0.000705    0.005601
    5   -3    1    4    1   -0.000341   -0.000537
    5   -3    1    5    1   -0.000753    0.000184
    5   -3    1    1    2    0.000015   -0.002445
    5   -3    1    2    2    0.001267   -0.000672
    5   -3    1    3    2   -0.002145   -0.000358
    5   -3    1    4    2   -0.000699   -0.000166
    5   -3    1    5    2    0.001703    0.000106
    5   -3    1    1    3   -0.000740    0.001853
    5   -3    1    2    3   -0.001939    0.000079
    5   -3    1    3    3    0.001310    0.000010
    5   -3    1    4    3   -0.000080   -0.000586
    5   -3    1    5    3    0.001829   -0.000063
    5   -3    1    1    4    0.000424    0.000507
    5   -3    1    2    4   -0.002075    0.000143
    5   -3    1    3    4    0.001458    0.001036
    5   -3    1    4    4    0.001003   -0.000399
    5   -3    1    5    4    0.000338   -0.000201
    5   -3    1    1    5   -0.000923    0.000104
    5   -3    1    2    5    0.001863   -0.000050
    5   -3    1    3    5    0.001862   -0.000060
    5   -3    1    4    5    0.000059    0.000337
    5   -3    1    5    5    0.000967    0.000021
    5   -2   -3    1    1    0.000143    0.001076
    5   -2   -3    2    1   -0.004662    0.004321
    5   -2   -3    3    1    0.016165   -0.005938
    5   -2   -3    4    1   -0.001863    0.002096
    5   -2   -3    5    1   -0.003334   -0.000625
    5   -2   -3    1    2    0.003827    0.007661
    5   -2   -3    2    2   -0.002345   -0.000405
    5   -2   -3    3    2   -0.003801    0.000187
    5   -2   -3    4    2    0.001815   -0.001918
    5   -2   -3    5    2   -0.004137    0.000420
    5   -2   -3    1    3    0.015890   -0.002924
    5   -2   -3    2    3   -0.003848    0.000104
    5   -2   -3    3    3   -0.001833   -0.000175
    5   -2   -3    4    3    0.004584    0.000701
    5   -2   -3    5    3    0.001305    0.000013
    5   -2   -3    1    4   -0.003746   -0.000843
    5   -2   -3    2    4    0.001917    0.001399
    5   -2   -3    3    4    0.004896   -0.000358
    5   -2   -3    4    4   -0.003455   -0.000217
    5   -2   -3    5    4    0.014200    0.001223
    5   -2   -3    1    5   -0.001851    0.000122
    5   -2   -3    2    5   -0.003820   -0.000600
    5   -2   -3    3    5    0.001311    0.000154
    5   -2   -3    4    5    0.013142   -0.000691
    5   -2   -3    5    5   -0.001769   -0.000280
    5   -2   -2    1    1    0.009999    0.000362
    5   -2   -2    2    1   -0.008706    0.004558
    5   -2   -2    3    1    0.008926   -0.005267
    5   -2   -2    4    1    0.007636   -0.000761
    5   -2   -2    5    1    0.000573   -0.002093
    5   -2   -2    1    2   -0.005073    0.006327
    5   -2   -2    2    2    0.003224   -0.000318
    5   -2   -2    3    2   -0.000048    0.000296
    5   -2   -2    4    2   -0.000256    0.001328
    5   -2   -2    5    2    0.009261    0.000098
    5   -2   -2    1    3    0.007156   -0.004990
    5   -2   -2    2    3   -0.000091    0.000306
    5   -2   -2    3    3    0.001267    0.000177
    5   -2   -2    4    3   -0.010029    0.000446
    5   -2   -2    5    3   -0.000131   -0.000168
    5   -2   -2    1    4    0.009625    0.000153
    5   -2   -2    2    4    0.000461   -0.000092
    5   -2   -2    3    4   -0.009779   -0.000835
    5   -2   -2    4    4    0.002170   -0.000427
    5   -2   -2    5    4    0.004042   -0.000300
    5   -2   -2    1    5    0.005300    0.002272
    5   -2   -2    2    5    0.009134   -0.000126
    5   -2   -2    3    5   -0.000570    0.000346
    5   -2   -2    4    5    0.005367   -0.000488
    5   -2   -2    5    5    0.003014    0.000206
    5   -2   -1    1    1    0.011340   -0.000490
    5   -2   -1    2    1   -0.008495    0.006393
    5   -2   -1    3    1    0.008073   -0.002343
    5   -2   -1    4    1   -0.007364   -0.000158
    5   -2   -1    5    1    0.002193    0.000930
    5   -2   -1    1    2   -0.008061    0.005382
    5   -2   -1    2    2    0.001400   -0.000018
    5   -2   -1    3    2    0.000246    0.000243
    5   -2   -1    4    2   -0.009460   -0.000627
    5   -2   -1    5    2    0.000047    0.000153
    5   -2   -1    1    3    0.004129   -0.007170
    5   -2   -1    2    3   -0.000391    0.000212
    5   -2   -1    3    3    0.002862   -0.000358
    5   -2   -1    4    3    0.000491    0.000014
    5   -2   -1    5    3   -0.008918   -0.000156
    5   -2   -1    1    4   -0.010087    0.000533
    5   -2   -1    2    4   -0.010773   -0.000747
    5   -2   -1    3    4   -0.000345    0.000506
    5   -2   -1    4    4    0.000846    0.000940
    5   -2   -1    5    4   -0.004268    0.000546
    5   -2   -1    1    5    0.003199   -0.001177
    5   -2   -1    2    5    0.000463   -0.000559
    5   -2   -1    3    5   -0.009219    0.000260
    5   -2   -1    4    5   -0.005117    0.000433
    5   -2   -1    5    5    0.003066   -0.000073
    5   -2    0    1    1   -0.000546    0.001170
    5   -2    0    2    1   -0.016315    0.006091
    5   -2    0    3    1    0.003109   -0.006157
    5   -2    0    4    1    0.002415    0.000331
    5   -2    0    5    1   -0.004051   -0.000083
    5   -2    0    1    2   -0.016609    0.004358
    5   -2    0    2    2   -0.002002    0.000041
    5   -2    0    3    2   -0.003418    0.000723
    5   -2    0    4    2    0.005069   -0.000414
    5   -2    0    5    2   -0.001156    0.000010
    5   -2    0    1    3   -0.001751   -0.004026
    5   -2    0    2    3   -0.004571    0.000006
    5   -2    0    3    3   -0.002331   -0.000093
    5   -2    0    4    3    0.002532   -0.000399
    5   -2    0    5    3    0.003769   -0.000327
    5   -2    0    1    4    0.004296   -0.001821
    5   -2    0    2    4    0.005304    0.001163
    5   -2    0    3    4    0.001110   -0.000044
    5   -2    0    4    4   -0.002647   -0.001059
    5   -2    0    5    4   -0.013529   -0.001705
    5   -2    0    1    5   -0.001007   -0.000273
    5   -2    0    2    5   -0.001054    0.000068
    5   -2    0    3    5    0.004311    0.000308
    5   -2    0    4    5   -0.014030    0.001069
    5   -2    0    5    5   -0.001825   -0.000059
    5   -1   -3    1    1   -0.007263   -0.001000
    5   -1   -3    2    1    0.009276    0.000412
    5   -1   -3    3    1   -0.004153    0.005002
    5   -1   -3    4    1   -0.001442    0.000076
    5   -1   -3    5    1    0.001697    0.002855
    5   -1   -3    1    2    0.002723   -0.010550
    5   -1   -3    2    2    0.008280    0.000210
    5   -1   -3    3    2   -0.000359   -0.000453
    5   -1   -3    4    2    0.004701    0.000194
    5   -1   -3    5    2   -0.000056   -0.000011
    5   -1   -3    1    3   -0.004215    0.003263
    5   -1   -3    2    3    0.000003   -0.000036
    5   -1   -3    3    3    0.006546   -0.000112
    5   -1   -3    4    3   -0.000324   -0.000028
    5   -1   -3    5    3   -0.002789    0.000052
    5   -1   -3    1    4   -0.002392   -0.000401
    5   -1   -3    2    4    0.003421   -0.000003
    5   -1   -3    3    4    0.000330    0.000412
    5   -1   -3    4    4   -0.010483    0.000905
    5   -1   -3    5    4    0.000664    0.000787
    5   -1   -3    1    5   -0.001590   -0.002418
    5   -1   -3    2    5   -0.000280    0.000151
    5   -1   -3    3    5   -0.002742    0.000191
    5   -1   -3    4    5   -0.001148   -0.000670
    5   -1   -3    5    5    0.006616   -0.000002
    5   -1   -2    1    1   -0.002989    0.001084
    5   -1   -2    2    1    0.008588   -0.001722
    5   -1   -2    3    1   -0.007724   -0.000101
    5   -1   -2    4    1   -0.001012    0.000096
    5   -1   -2    5    1    0.012658    0.001691
    5   -1   -2    1    2    0.006264   -0.006081
    5   -1   -2    2    2    0.002847   -0.000019
    5   -1   -2    3    2   -0.009707   -0.000155
    5   -1   -2    4    2   -0.004387    0.000140
    5   -1   -2    5    2    0.000612   -0.000171
    5   -1   -2    1    3   -0.005097    0.007406
    5   -1   -2    2    3   -0.009061   -0.000190
    5   -1   -2    3    3    0.003071   -0.000288
    5   -1   -2    4    3   -0.004493    0.000155
    5   -1   -2    5    3   -0.000600   -0.000039
    5   -1   -2    1    4    0.000752    0.000632
    5   -1   -2    2    4   -0.005391   -0.000324
    5   -1   -2    3    4   -0.004400   -0.000485
    5   -1   -2    4    4    0.015058   -0.000468
    5   -1   -2    5    4   -0.000956   -0.001646
    5   -1   -2    1    5    0.009687   -0.002391
    5   -1   -2    2    5    0.000151    0.000071
    5   -1   -2    3    5   -0.000277   -0.000093
    5   -1   -2    4    5    0.001635    0.001498
    5   -1   -2    5    5    0.001233   -0.000309
    5   -1   -1    1    1   -0.008719   -0.000661
    5   -1   -1    2    1    0.004806   -0.004298
    5   -1   -1    3    1   -0.008475   -0.000113
    5   -1   -1    4    1    0.002527   -0.001130
    5   -1   -1    5    1    0.001411    0.001252
    5   -1   -1    1    2    0.004398   -0.005507
    5   -1   -1    2    2    0.006590   -0.000116
    5   -1   -1    3    2    0.000058   -0.000891
    5   -1   -1    4    2   -0.000317    0.000328
    5   -1   -1    5    2    0.002728    0.000149
    5   -1   -1    1    3   -0.002549    0.008463
    5   -1   -1    2    3   -0.000153    0.000201
    5   -1   -1    3    3    0.008486   -0.000028
    5   -1   -1    4    3    0.003276   -0.001679
    5   -1   -1    5    3   -0.000446    0.000088
    5   -1   -1    1    4    0.001817    0.000712
    5   -1   -1    2    4    0.000641   -0.000042
    5   -1   -1    3    4    0.002951    0.002075
    5   -1   -1    4    4   -0.008772    0.000802
    5   -1   -1    5    4    0.000974    0.000212
    5   -1   -1    1    5   -0.001854   -0.000459
    5   -1   -1    2    5    0.002712   -0.000059
    5   -1   -1    3    5    0.000343    0.000215
    5   -1   -1    4    5   -0.001143   -0.000249
    5   -1   -1    5    5    0.006565    0.000003
    5    0   -3    1    1    0.000861    0.000079
    5    0   -3    2    1   -0.003292   -0.000600
    5    0   -3    3    1   -0.010451   -0.001346
    5    0   -3    4    1   -0.003271   -0.000190
    5    0   -3    5    1    0.001724   -0.001410
    5    0   -3    1    2   -0.005526    0.004059
    5    0   -3    2    2   -0.001790   -0.000400
    5    0   -3    3    2    0.004111    0.000309
    5    0   -3    4    2    0.002098   -0.000886
    5    0   -3    5    2    0.004425   -0.000435
    5    0   -3    1    3   -0.007530   -0.002217
    5    0   -3    2    3    0.004235    0.000042
    5    0   -3    3    3   -0.001721    0.000123
    5    0   -3    4    3   -0.004637   -0.000540
    5    0   -3    5    3    0.001355    0.000168
    5    0   -3    1    4   -0.003435   -0.001528
    5    0   -3    2    4    0.000737    0.000430
    5    0   -3    3    4   -0.005165    0.000785
    5    0   -3    4    4   -0.001952    0.000379
    5    0   -3    5    4   -0.014000    0.000024
    5    0   -3    1    5    0.003229    0.001759
    5    0   -3    2    5    0.004071    0.000110
    5    0   -3    3    5    0.001494    0.000097
    5    0   -3    4    5   -0.013279   -0.000024
    5    0   -3    5    5   -0.001847   -0.000180
    5    0   -2    1    1   -0.000067    0.000315
    5    0   -2    2    1    0.009272    0.001400
    5    0   -2    3    1    0.003800    0.002024
    5    0   -2    4    1    0.003312    0.001262
    5    0   -2    5    1    0.002573   -0.001674
    5    0   -2    1    2    0.006675    0.002695
    5    0   -2    2    2   -0.001620    0.000202
    5    0   -2    3    2    0.004361    0.000845
    5    0   -2    4    2   -0.004877    0.000994
    5    0   -2    5    2   -0.000980   -0.000134
    5    0   -2    1    3    0.003943   -0.005067
    5    0   -2    2    3    0.003853    0.000080
    5    0   -2    3    3   -0.002144    0.000106
    5    0   -2    4    3    0.001167   -0.000646
    5    0   -2    5    3   -0.004517    0.000416
    5    0   -2    1    4    0.003873    0.000137
    5    0   -2    2    4   -0.004338   -0.000386
    5    0   -2    3    4    0.001796    0.000485
    5    0   -2    4    4   -0.001066   -0.000715
    5    0   -2    5    4    0.013260    0.000792
    5    0   -2    1    5    0.003442    0.002677
    5    0   -2    2    5   -0.001656    0.000076
    5    0   -2    3    5   -0.003722   -0.000058
    5    0   -2    4    5    0.013652   -0.001123
    5    0   -2    5    5   -0.001706    0.000093
    5    1   -3    1    1    0.002800   -0.001578
    5    1   -3    2    1    0.001582   -0.000502
    5    1   -3    3    1   -0.002846   -0.001032
    5    1   -3    4    1    0.001982   -0.000009
    5    1   -3    5    1    0.000450    0.001200
    5    1   -3    1    2    0.008037    0.000898
    5    1   -3    2    2    0.000655    0.000064
    5    1   -3    3    2    0.002282   -0.000356
    5    1   -3    4    2    0.001176   -0.000929
    5    1   -3    5    2    0.001744   -0.000189
    5    1   -3    1    3   -0.005539    0.000266
    5    1   -3    2    3    0.001773   -0.000162
    5    1   -3    3    3    0.000896   -0.000355
    5    1   -3    4    3    0.001411   -0.000042
    5    1   -3    5    3   -0.001664   -0.000138
    5    1   -3    1    4   -0.001560    0.000593
    5    1   -3    2    4    0.001040    0.000262
    5    1   -3    3    4    0.000467   -0.000072
    5    1   -3    4    4   -0.001467    0.001832
    5    1   -3    5    4   -0.001025   -0.000490
    5    1   -3    1    5    0.000649   -0.002277
    5    1   -3    2    5    0.001779    0.000040
    5    1   -3    3    5   -0.001865   -0.000209
    5    1   -3    4    5    0.000614    0.000427
    5    1   -3    5    5    0.000954    0.000038
    6   -2   -2    1    1   -0.022166   -0.000761
    6   -2   -2    2    1    0.000248   -0.005914
    6   -2   -2    3    1    0.000526    0.005540
    6   -2   -2    4    1    0.000718    0.000330
    6   -2   -2    5    1    0.001100    0.000880
    6   -2   -2    1    2   -0.000650   -0.008700
    6   -2   -2    2    2   -0.018400    0.000207
    6   -2   -2    3    2   -0.000756   -0.000279
    6   -2   -2    4    2    0.000077    0.000755
    6   -2   -2    5    2   -0.000208   -0.000389
    6   -2   -2    1    3   -0.000682    0.006346
    6   -2   -2    2    3   -0.000120   -0.000253
    6   -2   -2    3    3   -0.018386    0.000263
    6   -2   -2    4    3    0.000104   -0.001139
    6   -2   -2    5    3    0.000063    0.000080
    6   -2   -2    1    4   -0.000086   -0.000680
    6   -2   -2    2    4    0.000787   -0.000483
    6   -2   -2    3    4   -0.000366    0.001776
    6   -2   -2    4    4   -0.018923    0.000153
    6   -2   -2    5    4   -0.000123    0.002056
    6   -2   -2    1    5   -0.001774    0.000029
    6   -2   -2    2    5   -0.000177    0.000181
    6   -2   -2    3    5   -0.000056   -0.000090
    6   -2   -2    4    5   -0.000660   -0.002316
    6   -2   -2    5    5   -0.018480    0.000139
