 written on 28Mar2021 at 14:26:50 
          28
          81
    1    1    1    1    1    1    1    1    1    1    1    1    1    1    1
    1    1    1    1    1    1    1    1    1    1    1    1    1    1    1
    1    1    1    1    1    1    1    1    1    1    1    1    1    1    1
    1    1    1    1    1    1    1    1    1    1    1    1    1    1    1
    1    1    1    1    1    1    1    1    1    1    1    1    1    1    1
    1    1    1    1    1    1
   -5   -3    0    1    1    0.000024   -0.000036
   -5   -3    0    2    1    0.000003   -0.000036
   -5   -3    0    3    1    0.000301    0.000049
   -5   -3    0    4    1    0.000006    0.000037
   -5   -3    0    5    1   -0.000122    0.000010
   -5   -3    0    6    1   -0.000014   -0.000028
   -5   -3    0    7    1    0.000066    0.000031
   -5   -3    0    8    1   -0.000000    0.000004
   -5   -3    0    9    1    0.000277    0.000034
   -5   -3    0   10    1   -0.000034    0.000001
   -5   -3    0   11    1   -0.000170   -0.000033
   -5   -3    0   12    1   -0.000008    0.000004
   -5   -3    0   13    1   -0.000374   -0.000050
   -5   -3    0   14    1   -0.000026    0.000045
   -5   -3    0   15    1    0.000225    0.000000
   -5   -3    0   16    1   -0.000073    0.000022
   -5   -3    0   17    1    0.000359    0.000029
   -5   -3    0   18    1   -0.000013    0.000037
   -5   -3    0   19    1   -0.000336   -0.000065
   -5   -3    0   20    1   -0.000061   -0.000004
   -5   -3    0   21    1   -0.000511   -0.000025
   -5   -3    0   22    1   -0.000051   -0.000032
   -5   -3    0   23    1    0.000019   -0.000030
   -5   -3    0   24    1   -0.000015    0.000028
   -5   -3    0   25    1   -0.000012   -0.000011
   -5   -3    0   26    1   -0.000105   -0.000037
   -5   -3    0   27    1    0.000260    0.000063
   -5   -3    0   28    1    0.000035   -0.000054
   -5   -3    0    1    2   -0.000003   -0.000036
   -5   -3    0    2    2    0.000024    0.000036
   -5   -3    0    3    2   -0.000006    0.000037
   -5   -3    0    4    2    0.000301   -0.000049
   -5   -3    0    5    2    0.000014   -0.000028
   -5   -3    0    6    2   -0.000122   -0.000010
   -5   -3    0    7    2    0.000000    0.000004
   -5   -3    0    8    2    0.000066   -0.000031
   -5   -3    0    9    2    0.000034    0.000001
   -5   -3    0   10    2    0.000277   -0.000034
   -5   -3    0   11    2    0.000008    0.000004
   -5   -3    0   12    2   -0.000170    0.000033
   -5   -3    0   13    2    0.000026    0.000045
   -5   -3    0   14    2   -0.000374    0.000050
   -5   -3    0   15    2    0.000073    0.000022
   -5   -3    0   16    2    0.000225   -0.000000
   -5   -3    0   17    2    0.000013    0.000037
   -5   -3    0   18    2    0.000359   -0.000029
   -5   -3    0   19    2    0.000061   -0.000004
   -5   -3    0   20    2   -0.000336    0.000065
   -5   -3    0   21    2    0.000051   -0.000032
   -5   -3    0   22    2   -0.000511    0.000025
   -5   -3    0   23    2    0.000015    0.000028
   -5   -3    0   24    2    0.000019    0.000030
   -5   -3    0   25    2    0.000105   -0.000037
   -5   -3    0   26    2   -0.000012    0.000011
   -5   -3    0   27    2   -0.000035   -0.000054
   -5   -3    0   28    2    0.000260   -0.000063
   -5   -3    0    1    3   -0.000202   -0.000027
   -5   -3    0    2    3    0.000039    0.000011
   -5   -3    0    3    3    0.000061   -0.000105
   -5   -3    0    4    3    0.000022    0.000032
   -5   -3    0    5    3    0.000250    0.000054
   -5   -3    0    6    3    0.000039    0.000004
   -5   -3    0    7    3    0.000265   -0.000089
   -5   -3    0    8    3    0.000028   -0.000061
   -5   -3    0    9    3    0.000326    0.000081
   -5   -3    0   10    3    0.000010   -0.000000
   -5   -3    0   11    3    0.000183    0.000046
   -5   -3    0   12    3   -0.000014   -0.000013
   -5   -3    0   13    3   -0.000289   -0.000019
   -5   -3    0   14    3    0.000023    0.000015
   -5   -3    0   15    3    0.000013    0.000011
   -5   -3    0   16    3   -0.000015   -0.000004
   -5   -3    0   17    3    0.000389   -0.000155
   -5   -3    0   18    3   -0.000070   -0.000065
   -5   -3    0   19    3   -0.000117    0.000050
   -5   -3    0   20    3    0.000040    0.000005
   -5   -3    0   21    3   -0.000354    0.000029
   -5   -3    0   22    3    0.000001   -0.000008
   -5   -3    0   23    3    0.000098    0.000004
   -5   -3    0   24    3    0.000006    0.000065
   -5   -3    0   25    3    0.000717   -0.000015
   -5   -3    0   26    3    0.000033   -0.000069
   -5   -3    0   27    3    0.000599   -0.000029
   -5   -3    0   28    3    0.000020   -0.000020
   -5   -3    0    1    4   -0.000039    0.000011
   -5   -3    0    2    4   -0.000202    0.000027
   -5   -3    0    3    4   -0.000022    0.000032
   -5   -3    0    4    4    0.000061    0.000105
   -5   -3    0    5    4   -0.000039    0.000004
   -5   -3    0    6    4    0.000250   -0.000054
   -5   -3    0    7    4   -0.000028   -0.000061
   -5   -3    0    8    4    0.000265    0.000089
   -5   -3    0    9    4   -0.000010   -0.000000
   -5   -3    0   10    4    0.000326   -0.000081
   -5   -3    0   11    4    0.000014   -0.000013
   -5   -3    0   12    4    0.000183   -0.000046
   -5   -3    0   13    4   -0.000023    0.000015
   -5   -3    0   14    4   -0.000289    0.000019
   -5   -3    0   15    4    0.000015   -0.000004
   -5   -3    0   16    4    0.000013   -0.000011
   -5   -3    0   17    4    0.000070   -0.000065
   -5   -3    0   18    4    0.000389    0.000155
   -5   -3    0   19    4   -0.000040    0.000005
   -5   -3    0   20    4   -0.000117   -0.000050
   -5   -3    0   21    4   -0.000001   -0.000008
   -5   -3    0   22    4   -0.000354   -0.000029
   -5   -3    0   23    4   -0.000006    0.000065
   -5   -3    0   24    4    0.000098   -0.000004
   -5   -3    0   25    4   -0.000033   -0.000069
   -5   -3    0   26    4    0.000717    0.000015
   -5   -3    0   27    4   -0.000020   -0.000020
   -5   -3    0   28    4    0.000599    0.000029
   -5   -3    0    1    5    0.000230    0.000009
   -5   -3    0    2    5   -0.000072   -0.000018
   -5   -3    0    3    5   -0.000004    0.000002
   -5   -3    0    4    5    0.000001    0.000033
   -5   -3    0    5    5   -0.000096   -0.000038
   -5   -3    0    6    5   -0.000036   -0.000016
   -5   -3    0    7    5   -0.000127    0.000170
   -5   -3    0    8    5   -0.000060    0.000046
   -5   -3    0    9    5   -0.000056    0.000011
   -5   -3    0   10    5    0.000011    0.000079
   -5   -3    0   11    5    0.000338   -0.000075
   -5   -3    0   12    5   -0.000006   -0.000018
   -5   -3    0   13    5   -0.000077   -0.000067
   -5   -3    0   14    5    0.000020   -0.000006
   -5   -3    0   15    5   -0.000446   -0.000148
   -5   -3    0   16    5    0.000071    0.000105
   -5   -3    0   17    5    0.000282   -0.000011
   -5   -3    0   18    5   -0.000055   -0.000038
   -5   -3    0   19    5    0.000267   -0.000048
   -5   -3    0   20    5   -0.000023   -0.000032
   -5   -3    0   21    5    0.000156   -0.000049
   -5   -3    0   22    5   -0.000047   -0.000099
   -5   -3    0   23    5   -0.000008   -0.000062
   -5   -3    0   24    5   -0.000010    0.000019
   -5   -3    0   25    5   -0.000197    0.000006
   -5   -3    0   26    5   -0.000065    0.000113
   -5   -3    0   27    5   -0.000042    0.000115
   -5   -3    0   28    5   -0.000057    0.000070
   -5   -3    0    1    6    0.000072   -0.000018
   -5   -3    0    2    6    0.000230   -0.000009
   -5   -3    0    3    6   -0.000001    0.000033
   -5   -3    0    4    6   -0.000004   -0.000002
   -5   -3    0    5    6    0.000036   -0.000016
   -5   -3    0    6    6   -0.000096    0.000038
   -5   -3    0    7    6    0.000060    0.000046
   -5   -3    0    8    6   -0.000127   -0.000170
   -5   -3    0    9    6   -0.000011    0.000079
   -5   -3    0   10    6   -0.000056   -0.000011
   -5   -3    0   11    6    0.000006   -0.000018
   -5   -3    0   12    6    0.000338    0.000075
   -5   -3    0   13    6   -0.000020   -0.000006
   -5   -3    0   14    6   -0.000077    0.000067
   -5   -3    0   15    6   -0.000071    0.000105
   -5   -3    0   16    6   -0.000446    0.000148
   -5   -3    0   17    6    0.000055   -0.000038
   -5   -3    0   18    6    0.000282    0.000011
   -5   -3    0   19    6    0.000023   -0.000032
   -5   -3    0   20    6    0.000267    0.000048
   -5   -3    0   21    6    0.000047   -0.000099
   -5   -3    0   22    6    0.000156    0.000049
   -5   -3    0   23    6    0.000010    0.000019
   -5   -3    0   24    6   -0.000008    0.000062
   -5   -3    0   25    6    0.000065    0.000113
   -5   -3    0   26    6   -0.000197   -0.000006
   -5   -3    0   27    6    0.000057    0.000070
   -5   -3    0   28    6   -0.000042   -0.000115
   -5   -3    0    1    7    0.000090    0.000033
   -5   -3    0    2    7   -0.000056   -0.000060
   -5   -3    0    3    7    0.000450    0.000029
   -5   -3    0    4    7    0.000076   -0.000011
   -5   -3    0    5    7   -0.000194    0.000204
   -5   -3    0    6    7    0.000006   -0.000048
   -5   -3    0    7    7    0.000348    0.000038
   -5   -3    0    8    7    0.000041    0.000051
   -5   -3    0    9    7    0.000024    0.000025
   -5   -3    0   10    7    0.000030    0.000045
   -5   -3    0   11    7   -0.001415   -0.000062
   -5   -3    0   12    7    0.000001    0.000014
   -5   -3    0   13    7   -0.002624   -0.000097
   -5   -3    0   14    7    0.000062    0.000034
   -5   -3    0   15    7   -0.000212    0.000015
   -5   -3    0   16    7    0.000051    0.000057
   -5   -3    0   17    7    0.000201    0.000014
   -5   -3    0   18    7    0.000074    0.000044
   -5   -3    0   19    7   -0.000555   -0.000048
   -5   -3    0   20    7   -0.000036   -0.000046
   -5   -3    0   21    7   -0.000991   -0.000047
   -5   -3    0   22    7    0.000082    0.000051
   -5   -3    0   23    7    0.000026   -0.000117
   -5   -3    0   24    7    0.000060   -0.000065
   -5   -3    0   25    7   -0.000135   -0.000080
   -5   -3    0   26    7    0.000019    0.000014
   -5   -3    0   27    7    0.003741    0.000180
   -5   -3    0   28    7    0.000038   -0.000020
   -5   -3    0    1    8    0.000056   -0.000060
   -5   -3    0    2    8    0.000090   -0.000033
   -5   -3    0    3    8   -0.000076   -0.000011
   -5   -3    0    4    8    0.000450   -0.000029
   -5   -3    0    5    8   -0.000006   -0.000048
   -5   -3    0    6    8   -0.000194   -0.000204
   -5   -3    0    7    8   -0.000041    0.000051
   -5   -3    0    8    8    0.000348   -0.000038
   -5   -3    0    9    8   -0.000030    0.000045
   -5   -3    0   10    8    0.000024   -0.000025
   -5   -3    0   11    8   -0.000001    0.000014
   -5   -3    0   12    8   -0.001415    0.000062
   -5   -3    0   13    8   -0.000062    0.000034
   -5   -3    0   14    8   -0.002624    0.000097
   -5   -3    0   15    8   -0.000051    0.000057
   -5   -3    0   16    8   -0.000212   -0.000015
   -5   -3    0   17    8   -0.000074    0.000044
   -5   -3    0   18    8    0.000201   -0.000014
   -5   -3    0   19    8    0.000036   -0.000046
   -5   -3    0   20    8   -0.000555    0.000048
   -5   -3    0   21    8   -0.000082    0.000051
   -5   -3    0   22    8   -0.000991    0.000047
   -5   -3    0   23    8   -0.000060   -0.000065
   -5   -3    0   24    8    0.000026    0.000117
   -5   -3    0   25    8   -0.000019    0.000014
   -5   -3    0   26    8   -0.000135    0.000080
   -5   -3    0   27    8   -0.000038   -0.000020
   -5   -3    0   28    8    0.003741   -0.000180
   -5   -3    0    1    9    0.000144   -0.000018
   -5   -3    0    2    9    0.000051   -0.000073
   -5   -3    0    3    9    0.000238    0.000019
   -5   -3    0    4    9    0.000055   -0.000016
   -5   -3    0    5    9    0.000051   -0.000001
   -5   -3    0    6    9    0.000019    0.000080
   -5   -3    0    7    9    0.000558    0.000030
   -5   -3    0    8    9    0.000008   -0.000065
   -5   -3    0    9    9   -0.000322   -0.000000
   -5   -3    0   10    9    0.000008   -0.000012
   -5   -3    0   11    9   -0.000628   -0.000025
   -5   -3    0   12    9    0.000024    0.000039
   -5   -3    0   13    9   -0.000766    0.000073
   -5   -3    0   14    9   -0.000042   -0.000003
   -5   -3    0   15    9   -0.000366    0.000069
   -5   -3    0   16    9   -0.000090    0.000003
   -5   -3    0   17    9    0.000669    0.000127
   -5   -3    0   18    9    0.000032   -0.000028
   -5   -3    0   19    9   -0.000048   -0.000000
   -5   -3    0   20    9   -0.000024    0.000008
   -5   -3    0   21    9   -0.000079   -0.000059
   -5   -3    0   22    9   -0.000063    0.000006
   -5   -3    0   23    9   -0.000498    0.000015
   -5   -3    0   24    9   -0.000009   -0.000022
   -5   -3    0   25    9   -0.000355    0.000029
   -5   -3    0   26    9   -0.000045    0.000074
   -5   -3    0   27    9    0.001458   -0.000068
   -5   -3    0   28    9    0.000041   -0.000008
   -5   -3    0    1   10   -0.000051   -0.000073
   -5   -3    0    2   10    0.000144    0.000018
   -5   -3    0    3   10   -0.000055   -0.000016
   -5   -3    0    4   10    0.000238   -0.000019
   -5   -3    0    5   10   -0.000019    0.000080
   -5   -3    0    6   10    0.000051    0.000001
   -5   -3    0    7   10   -0.000008   -0.000065
   -5   -3    0    8   10    0.000558   -0.000030
   -5   -3    0    9   10   -0.000008   -0.000012
   -5   -3    0   10   10   -0.000322    0.000000
   -5   -3    0   11   10   -0.000024    0.000039
   -5   -3    0   12   10   -0.000628    0.000025
   -5   -3    0   13   10    0.000042   -0.000003
   -5   -3    0   14   10   -0.000766   -0.000073
   -5   -3    0   15   10    0.000090    0.000003
   -5   -3    0   16   10   -0.000366   -0.000069
   -5   -3    0   17   10   -0.000032   -0.000028
   -5   -3    0   18   10    0.000669   -0.000127
   -5   -3    0   19   10    0.000024    0.000008
   -5   -3    0   20   10   -0.000048    0.000000
   -5   -3    0   21   10    0.000063    0.000006
   -5   -3    0   22   10   -0.000079    0.000059
   -5   -3    0   23   10    0.000009   -0.000022
   -5   -3    0   24   10   -0.000498   -0.000015
   -5   -3    0   25   10    0.000045    0.000074
   -5   -3    0   26   10   -0.000355   -0.000029
   -5   -3    0   27   10   -0.000041   -0.000008
   -5   -3    0   28   10    0.001458    0.000068
   -5   -3    0    1   11    0.000288    0.000001
   -5   -3    0    2   11   -0.000047    0.000027
   -5   -3    0    3   11   -0.000683   -0.000031
   -5   -3    0    4   11   -0.000015    0.000019
   -5   -3    0    5   11    0.000400   -0.000055
   -5   -3    0    6   11    0.000020    0.000007
   -5   -3    0    7   11    0.000311   -0.000023
   -5   -3    0    8   11    0.000038    0.000051
   -5   -3    0    9   11   -0.000525   -0.000014
   -5   -3    0   10   11    0.000007    0.000039
   -5   -3    0   11   11    0.000239    0.000049
   -5   -3    0   12   11    0.000059   -0.000019
   -5   -3    0   13   11    0.000226    0.000051
   -5   -3    0   14   11    0.000053    0.000010
   -5   -3    0   15   11   -0.000103   -0.000022
   -5   -3    0   16   11   -0.000005   -0.000010
   -5   -3    0   17   11    0.000030   -0.000026
   -5   -3    0   18   11   -0.000041   -0.000012
   -5   -3    0   19   11    0.000485    0.000037
   -5   -3    0   20   11   -0.000030   -0.000038
   -5   -3    0   21   11    0.000249    0.000028
   -5   -3    0   22   11    0.000047   -0.000007
   -5   -3    0   23   11   -0.000605    0.000029
   -5   -3    0   24   11   -0.000014    0.000038
   -5   -3    0   25   11    0.000039   -0.000045
   -5   -3    0   26   11   -0.000008    0.000002
   -5   -3    0   27   11   -0.000117   -0.000064
   -5   -3    0   28   11   -0.000049   -0.000007
   -5   -3    0    1   12    0.000047    0.000027
   -5   -3    0    2   12    0.000288   -0.000001
   -5   -3    0    3   12    0.000015    0.000019
   -5   -3    0    4   12   -0.000683    0.000031
   -5   -3    0    5   12   -0.000020    0.000007
   -5   -3    0    6   12    0.000400    0.000055
   -5   -3    0    7   12   -0.000038    0.000051
   -5   -3    0    8   12    0.000311    0.000023
   -5   -3    0    9   12   -0.000007    0.000039
   -5   -3    0   10   12   -0.000525    0.000014
   -5   -3    0   11   12   -0.000059   -0.000019
   -5   -3    0   12   12    0.000239   -0.000049
   -5   -3    0   13   12   -0.000053    0.000010
   -5   -3    0   14   12    0.000226   -0.000051
   -5   -3    0   15   12    0.000005   -0.000010
   -5   -3    0   16   12   -0.000103    0.000022
   -5   -3    0   17   12    0.000041   -0.000012
   -5   -3    0   18   12    0.000030    0.000026
   -5   -3    0   19   12    0.000030   -0.000038
   -5   -3    0   20   12    0.000485   -0.000037
   -5   -3    0   21   12   -0.000047   -0.000007
   -5   -3    0   22   12    0.000249   -0.000028
   -5   -3    0   23   12    0.000014    0.000038
   -5   -3    0   24   12   -0.000605   -0.000029
   -5   -3    0   25   12    0.000008    0.000002
   -5   -3    0   26   12    0.000039    0.000045
   -5   -3    0   27   12    0.000049   -0.000007
   -5   -3    0   28   12   -0.000117    0.000064
   -5   -3    0    1   13    0.000777   -0.000000
   -5   -3    0    2   13    0.000027   -0.000016
   -5   -3    0    3   13    0.000835    0.000017
   -5   -3    0    4   13   -0.000082    0.000009
   -5   -3    0    5   13   -0.000481    0.000031
   -5   -3    0    6   13    0.000012   -0.000070
   -5   -3    0    7   13    0.000715   -0.000024
   -5   -3    0    8   13   -0.000018   -0.000014
   -5   -3    0    9   13   -0.001221   -0.000017
   -5   -3    0   10   13    0.000007   -0.000018
   -5   -3    0   11   13   -0.000484   -0.000012
   -5   -3    0   12   13    0.000107    0.000060
   -5   -3    0   13   13   -0.001549   -0.000163
   -5   -3    0   14   13   -0.000027   -0.000001
   -5   -3    0   15   13   -0.000120   -0.000059
   -5   -3    0   16   13    0.000039   -0.000056
   -5   -3    0   17   13    0.000787   -0.000052
   -5   -3    0   18   13   -0.000075   -0.000083
   -5   -3    0   19   13    0.000230    0.000027
   -5   -3    0   20   13   -0.000040    0.000034
   -5   -3    0   21   13   -0.000186    0.000003
   -5   -3    0   22   13   -0.000023    0.000023
   -5   -3    0   23   13   -0.001671   -0.000027
   -5   -3    0   24   13   -0.000031   -0.000035
   -5   -3    0   25   13   -0.000435   -0.000065
   -5   -3    0   26   13    0.000118    0.000034
   -5   -3    0   27   13    0.002333    0.000172
   -5   -3    0   28   13   -0.000017   -0.000026
   -5   -3    0    1   14   -0.000027   -0.000016
   -5   -3    0    2   14    0.000777    0.000000
   -5   -3    0    3   14    0.000082    0.000009
   -5   -3    0    4   14    0.000835   -0.000017
   -5   -3    0    5   14   -0.000012   -0.000070
   -5   -3    0    6   14   -0.000481   -0.000031
   -5   -3    0    7   14    0.000018   -0.000014
   -5   -3    0    8   14    0.000715    0.000024
   -5   -3    0    9   14   -0.000007   -0.000018
   -5   -3    0   10   14   -0.001221    0.000017
   -5   -3    0   11   14   -0.000107    0.000060
   -5   -3    0   12   14   -0.000484    0.000012
   -5   -3    0   13   14    0.000027   -0.000001
   -5   -3    0   14   14   -0.001549    0.000163
   -5   -3    0   15   14   -0.000039   -0.000056
   -5   -3    0   16   14   -0.000120    0.000059
   -5   -3    0   17   14    0.000075   -0.000083
   -5   -3    0   18   14    0.000787    0.000052
   -5   -3    0   19   14    0.000040    0.000034
   -5   -3    0   20   14    0.000230   -0.000027
   -5   -3    0   21   14    0.000023    0.000023
   -5   -3    0   22   14   -0.000186   -0.000003
   -5   -3    0   23   14    0.000031   -0.000035
   -5   -3    0   24   14   -0.001671    0.000027
   -5   -3    0   25   14   -0.000118    0.000034
   -5   -3    0   26   14   -0.000435    0.000065
   -5   -3    0   27   14    0.000017   -0.000026
   -5   -3    0   28   14    0.002333   -0.000172
   -5   -3    0    1   15   -0.000046   -0.000012
   -5   -3    0    2   15   -0.000021    0.000048
   -5   -3    0    3   15   -0.000223   -0.000126
   -5   -3    0    4   15    0.000053    0.000001
   -5   -3    0    5   15    0.000400   -0.000058
   -5   -3    0    6   15    0.000062    0.000065
   -5   -3    0    7   15    0.000125    0.000059
   -5   -3    0    8   15   -0.000016    0.000029
   -5   -3    0    9   15   -0.000110    0.000113
   -5   -3    0   10   15    0.000038   -0.000015
   -5   -3    0   11   15    0.000716    0.000018
   -5   -3    0   12   15   -0.000031   -0.000027
   -5   -3    0   13   15    0.001126    0.000012
   -5   -3    0   14   15   -0.000019    0.000093
   -5   -3    0   15   15    0.000057   -0.000117
   -5   -3    0   16   15    0.000093   -0.000004
   -5   -3    0   17   15    0.000123   -0.000088
   -5   -3    0   18   15   -0.000005   -0.000072
   -5   -3    0   19   15    0.000438    0.000007
   -5   -3    0   20   15   -0.000028    0.000007
   -5   -3    0   21   15    0.000465   -0.000001
   -5   -3    0   22   15    0.000018    0.000062
   -5   -3    0   23   15    0.000003   -0.000038
   -5   -3    0   24   15   -0.000015   -0.000012
   -5   -3    0   25   15   -0.000052    0.000015
   -5   -3    0   26   15   -0.000047    0.000041
   -5   -3    0   27   15   -0.001360   -0.000024
   -5   -3    0   28   15    0.000006   -0.000009
   -5   -3    0    1   16    0.000021    0.000048
   -5   -3    0    2   16   -0.000046    0.000012
   -5   -3    0    3   16   -0.000053    0.000001
   -5   -3    0    4   16   -0.000223    0.000126
   -5   -3    0    5   16   -0.000062    0.000065
   -5   -3    0    6   16    0.000400    0.000058
   -5   -3    0    7   16    0.000016    0.000029
   -5   -3    0    8   16    0.000125   -0.000059
   -5   -3    0    9   16   -0.000038   -0.000015
   -5   -3    0   10   16   -0.000110   -0.000113
   -5   -3    0   11   16    0.000031   -0.000027
   -5   -3    0   12   16    0.000716   -0.000018
   -5   -3    0   13   16    0.000019    0.000093
   -5   -3    0   14   16    0.001126   -0.000012
   -5   -3    0   15   16   -0.000093   -0.000004
   -5   -3    0   16   16    0.000057    0.000117
   -5   -3    0   17   16    0.000005   -0.000072
   -5   -3    0   18   16    0.000123    0.000088
   -5   -3    0   19   16    0.000028    0.000007
   -5   -3    0   20   16    0.000438   -0.000007
   -5   -3    0   21   16   -0.000018    0.000062
   -5   -3    0   22   16    0.000465    0.000001
   -5   -3    0   23   16    0.000015   -0.000012
   -5   -3    0   24   16    0.000003    0.000038
   -5   -3    0   25   16    0.000047    0.000041
   -5   -3    0   26   16   -0.000052   -0.000015
   -5   -3    0   27   16   -0.000006   -0.000009
   -5   -3    0   28   16   -0.001360    0.000024
   -5   -3    0    1   17    0.000032   -0.000021
   -5   -3    0    2   17    0.000048    0.000034
   -5   -3    0    3   17    0.000419   -0.000086
   -5   -3    0    4   17   -0.000008   -0.000061
   -5   -3    0    5   17    0.000249    0.000127
   -5   -3    0    6   17    0.000046   -0.000059
   -5   -3    0    7   17    0.000039   -0.000114
   -5   -3    0    8   17    0.000006   -0.000012
   -5   -3    0    9   17    0.000119    0.000070
   -5   -3    0   10   17   -0.000027    0.000003
   -5   -3    0   11   17   -0.000335   -0.000004
   -5   -3    0   12   17   -0.000071    0.000044
   -5   -3    0   13   17   -0.001668   -0.000072
   -5   -3    0   14   17   -0.000022    0.000075
   -5   -3    0   15   17   -0.000178    0.000068
   -5   -3    0   16   17   -0.000055   -0.000046
   -5   -3    0   17   17   -0.000090   -0.000138
   -5   -3    0   18   17   -0.000040    0.000028
   -5   -3    0   19   17   -0.000313    0.000008
   -5   -3    0   20   17    0.000001    0.000025
   -5   -3    0   21   17   -0.000935    0.000031
   -5   -3    0   22   17    0.000075    0.000049
   -5   -3    0   23   17   -0.000306    0.000018
   -5   -3    0   24   17    0.000001    0.000053
   -5   -3    0   25   17   -0.000036   -0.000016
   -5   -3    0   26   17    0.000083   -0.000024
   -5   -3    0   27   17    0.002213    0.000086
   -5   -3    0   28   17    0.000133   -0.000109
   -5   -3    0    1   18   -0.000048    0.000034
   -5   -3    0    2   18    0.000032    0.000021
   -5   -3    0    3   18    0.000008   -0.000061
   -5   -3    0    4   18    0.000419    0.000086
   -5   -3    0    5   18   -0.000046   -0.000059
   -5   -3    0    6   18    0.000249   -0.000127
   -5   -3    0    7   18   -0.000006   -0.000012
   -5   -3    0    8   18    0.000039    0.000114
   -5   -3    0    9   18    0.000027    0.000003
   -5   -3    0   10   18    0.000119   -0.000070
   -5   -3    0   11   18    0.000071    0.000044
   -5   -3    0   12   18   -0.000335    0.000004
   -5   -3    0   13   18    0.000022    0.000075
   -5   -3    0   14   18   -0.001668    0.000072
   -5   -3    0   15   18    0.000055   -0.000046
   -5   -3    0   16   18   -0.000178   -0.000068
   -5   -3    0   17   18    0.000040    0.000028
   -5   -3    0   18   18   -0.000090    0.000138
   -5   -3    0   19   18   -0.000001    0.000025
   -5   -3    0   20   18   -0.000313   -0.000008
   -5   -3    0   21   18   -0.000075    0.000049
   -5   -3    0   22   18   -0.000935   -0.000031
   -5   -3    0   23   18   -0.000001    0.000053
   -5   -3    0   24   18   -0.000306   -0.000018
   -5   -3    0   25   18   -0.000083   -0.000024
   -5   -3    0   26   18   -0.000036    0.000016
   -5   -3    0   27   18   -0.000133   -0.000109
   -5   -3    0   28   18    0.002213   -0.000086
   -5   -3    0    1   19    0.000006   -0.000000
   -5   -3    0    2   19   -0.000064    0.000038
   -5   -3    0    3   19   -0.000137   -0.000016
   -5   -3    0    4   19   -0.000042    0.000034
   -5   -3    0    5   19    0.000092   -0.000030
   -5   -3    0    6   19    0.000035   -0.000003
   -5   -3    0    7   19    0.000014   -0.000024
   -5   -3    0    8   19   -0.000011    0.000018
   -5   -3    0    9   19    0.000001   -0.000013
   -5   -3    0   10   19    0.000029   -0.000010
   -5   -3    0   11   19    0.000147    0.000070
   -5   -3    0   12   19   -0.000006    0.000022
   -5   -3    0   13   19    0.000218    0.000101
   -5   -3    0   14   19    0.000052    0.000049
   -5   -3    0   15   19    0.000109   -0.000032
   -5   -3    0   16   19    0.000073   -0.000020
   -5   -3    0   17   19    0.000062   -0.000029
   -5   -3    0   18   19   -0.000036   -0.000038
   -5   -3    0   19   19   -0.000003    0.000037
   -5   -3    0   20   19   -0.000017    0.000018
   -5   -3    0   21   19    0.000080    0.000024
   -5   -3    0   22   19    0.000064    0.000062
   -5   -3    0   23   19   -0.000015   -0.000031
   -5   -3    0   24   19   -0.000050    0.000017
   -5   -3    0   25   19    0.000060   -0.000029
   -5   -3    0   26   19    0.000063    0.000035
   -5   -3    0   27   19   -0.000429   -0.000145
   -5   -3    0   28   19   -0.000016   -0.000023
   -5   -3    0    1   20    0.000064    0.000038
   -5   -3    0    2   20    0.000006    0.000000
   -5   -3    0    3   20    0.000042    0.000034
   -5   -3    0    4   20   -0.000137    0.000016
   -5   -3    0    5   20   -0.000035   -0.000003
   -5   -3    0    6   20    0.000092    0.000030
   -5   -3    0    7   20    0.000011    0.000018
   -5   -3    0    8   20    0.000014    0.000024
   -5   -3    0    9   20   -0.000029   -0.000010
   -5   -3    0   10   20    0.000001    0.000013
   -5   -3    0   11   20    0.000006    0.000022
   -5   -3    0   12   20    0.000147   -0.000070
   -5   -3    0   13   20   -0.000052    0.000049
   -5   -3    0   14   20    0.000218   -0.000101
   -5   -3    0   15   20   -0.000073   -0.000020
   -5   -3    0   16   20    0.000109    0.000032
   -5   -3    0   17   20    0.000036   -0.000038
   -5   -3    0   18   20    0.000062    0.000029
   -5   -3    0   19   20    0.000017    0.000018
   -5   -3    0   20   20   -0.000003   -0.000037
   -5   -3    0   21   20   -0.000064    0.000062
   -5   -3    0   22   20    0.000080   -0.000024
   -5   -3    0   23   20    0.000050    0.000017
   -5   -3    0   24   20   -0.000015    0.000031
   -5   -3    0   25   20   -0.000063    0.000035
   -5   -3    0   26   20    0.000060    0.000029
   -5   -3    0   27   20    0.000016   -0.000023
   -5   -3    0   28   20   -0.000429    0.000145
   -5   -3    0    1   21    0.000239    0.000000
   -5   -3    0    2   21   -0.000038    0.000022
   -5   -3    0    3   21    0.000151    0.000002
   -5   -3    0    4   21   -0.000097    0.000060
   -5   -3    0    5   21   -0.000082    0.000004
   -5   -3    0    6   21    0.000060   -0.000029
   -5   -3    0    7   21   -0.000186   -0.000047
   -5   -3    0    8   21   -0.000060   -0.000047
   -5   -3    0    9   21    0.000319   -0.000027
   -5   -3    0   10   21    0.000022   -0.000060
   -5   -3    0   11   21    0.000284    0.000089
   -5   -3    0   12   21    0.000005   -0.000027
   -5   -3    0   13   21    0.000425    0.000095
   -5   -3    0   14   21    0.000089   -0.000054
   -5   -3    0   15   21    0.000258   -0.000030
   -5   -3    0   16   21    0.000117   -0.000034
   -5   -3    0   17   21    0.000081   -0.000020
   -5   -3    0   18   21   -0.000054   -0.000072
   -5   -3    0   19   21    0.000108    0.000038
   -5   -3    0   20   21    0.000021    0.000025
   -5   -3    0   21   21    0.000125    0.000036
   -5   -3    0   22   21    0.000092    0.000028
   -5   -3    0   23   21    0.000014   -0.000020
   -5   -3    0   24   21   -0.000021    0.000028
   -5   -3    0   25   21   -0.000199   -0.000057
   -5   -3    0   26   21    0.000032   -0.000016
   -5   -3    0   27   21   -0.000739   -0.000159
   -5   -3    0   28   21   -0.000026    0.000095
   -5   -3    0    1   22    0.000038    0.000022
   -5   -3    0    2   22    0.000239   -0.000000
   -5   -3    0    3   22    0.000097    0.000060
   -5   -3    0    4   22    0.000151   -0.000002
   -5   -3    0    5   22   -0.000060   -0.000029
   -5   -3    0    6   22   -0.000082   -0.000004
   -5   -3    0    7   22    0.000060   -0.000047
   -5   -3    0    8   22   -0.000186    0.000047
   -5   -3    0    9   22   -0.000022   -0.000060
   -5   -3    0   10   22    0.000319    0.000027
   -5   -3    0   11   22   -0.000005   -0.000027
   -5   -3    0   12   22    0.000284   -0.000089
   -5   -3    0   13   22   -0.000089   -0.000054
   -5   -3    0   14   22    0.000425   -0.000095
   -5   -3    0   15   22   -0.000117   -0.000034
   -5   -3    0   16   22    0.000258    0.000030
   -5   -3    0   17   22    0.000054   -0.000072
   -5   -3    0   18   22    0.000081    0.000020
   -5   -3    0   19   22   -0.000021    0.000025
   -5   -3    0   20   22    0.000108   -0.000038
   -5   -3    0   21   22   -0.000092    0.000028
   -5   -3    0   22   22    0.000125   -0.000036
   -5   -3    0   23   22    0.000021    0.000028
   -5   -3    0   24   22    0.000014    0.000020
   -5   -3    0   25   22   -0.000032   -0.000016
   -5   -3    0   26   22   -0.000199    0.000057
   -5   -3    0   27   22    0.000026    0.000095
   -5   -3    0   28   22   -0.000739    0.000159
   -5   -3    0    1   23   -0.000112   -0.000005
   -5   -3    0    2   23    0.000003   -0.000054
   -5   -3    0    3   23   -0.000400   -0.000046
   -5   -3    0    4   23   -0.000030    0.000008
   -5   -3    0    5   23    0.000141   -0.000073
   -5   -3    0    6   23   -0.000003   -0.000016
   -5   -3    0    7   23   -0.000341   -0.000046
   -5   -3    0    8   23   -0.000014   -0.000079
   -5   -3    0    9   23    0.000084   -0.000052
   -5   -3    0   10   23   -0.000076    0.000002
   -5   -3    0   11   23    0.000645    0.000054
   -5   -3    0   12   23    0.000037    0.000012
   -5   -3    0   13   23    0.001544    0.000051
   -5   -3    0   14   23    0.000038    0.000070
   -5   -3    0   15   23    0.000283    0.000060
   -5   -3    0   16   23   -0.000113    0.000007
   -5   -3    0   17   23   -0.000558    0.000045
   -5   -3    0   18   23    0.000058    0.000021
   -5   -3    0   19   23    0.000227    0.000003
   -5   -3    0   20   23    0.000056    0.000021
   -5   -3    0   21   23    0.000646    0.000018
   -5   -3    0   22   23   -0.000048    0.000019
   -5   -3    0   23   23    0.000401    0.000128
   -5   -3    0   24   23    0.000021    0.000010
   -5   -3    0   25   23   -0.000558    0.000082
   -5   -3    0   26   23   -0.000041   -0.000040
   -5   -3    0   27   23   -0.002141   -0.000062
   -5   -3    0   28   23   -0.000065   -0.000085
   -5   -3    0    1   24   -0.000003   -0.000054
   -5   -3    0    2   24   -0.000112    0.000005
   -5   -3    0    3   24    0.000030    0.000008
   -5   -3    0    4   24   -0.000400    0.000046
   -5   -3    0    5   24    0.000003   -0.000016
   -5   -3    0    6   24    0.000141    0.000073
   -5   -3    0    7   24    0.000014   -0.000079
   -5   -3    0    8   24   -0.000341    0.000046
   -5   -3    0    9   24    0.000076    0.000002
   -5   -3    0   10   24    0.000084    0.000052
   -5   -3    0   11   24   -0.000037    0.000012
   -5   -3    0   12   24    0.000645   -0.000054
   -5   -3    0   13   24   -0.000038    0.000070
   -5   -3    0   14   24    0.001544   -0.000051
   -5   -3    0   15   24    0.000113    0.000007
   -5   -3    0   16   24    0.000283   -0.000060
   -5   -3    0   17   24   -0.000058    0.000021
   -5   -3    0   18   24   -0.000558   -0.000045
   -5   -3    0   19   24   -0.000056    0.000021
   -5   -3    0   20   24    0.000227   -0.000003
   -5   -3    0   21   24    0.000048    0.000019
   -5   -3    0   22   24    0.000646   -0.000018
   -5   -3    0   23   24   -0.000021    0.000010
   -5   -3    0   24   24    0.000401   -0.000128
   -5   -3    0   25   24    0.000041   -0.000040
   -5   -3    0   26   24   -0.000558   -0.000082
   -5   -3    0   27   24    0.000065   -0.000085
   -5   -3    0   28   24   -0.002141    0.000062
   -5   -3    0    1   25    0.000057   -0.000009
   -5   -3    0    2   25   -0.000053   -0.000059
   -5   -3    0    3   25    0.000158    0.000020
   -5   -3    0    4   25    0.000010    0.000004
   -5   -3    0    5   25   -0.000249    0.000046
   -5   -3    0    6   25   -0.000017    0.000016
   -5   -3    0    7   25   -0.000326    0.000053
   -5   -3    0    8   25   -0.000011    0.000050
   -5   -3    0    9   25   -0.000330   -0.000014
   -5   -3    0   10   25    0.000040    0.000016
   -5   -3    0   11   25   -0.000418   -0.000096
   -5   -3    0   12   25    0.000032   -0.000023
   -5   -3    0   13   25   -0.001071   -0.000165
   -5   -3    0   14   25    0.000197   -0.000041
   -5   -3    0   15   25   -0.000470   -0.000009
   -5   -3    0   16   25    0.000021    0.000067
   -5   -3    0   17   25   -0.000302    0.000044
   -5   -3    0   18   25    0.000072    0.000022
   -5   -3    0   19   25   -0.000253   -0.000062
   -5   -3    0   20   25    0.000011   -0.000010
   -5   -3    0   21   25   -0.000090   -0.000033
   -5   -3    0   22   25    0.000026    0.000002
   -5   -3    0   23   25    0.000139   -0.000062
   -5   -3    0   24   25   -0.000001   -0.000030
   -5   -3    0   25   25   -0.000439    0.000094
   -5   -3    0   26   25   -0.000051   -0.000012
   -5   -3    0   27   25    0.000956    0.000239
   -5   -3    0   28   25   -0.000184    0.000060
   -5   -3    0    1   26    0.000053   -0.000059
   -5   -3    0    2   26    0.000057    0.000009
   -5   -3    0    3   26   -0.000010    0.000004
   -5   -3    0    4   26    0.000158   -0.000020
   -5   -3    0    5   26    0.000017    0.000016
   -5   -3    0    6   26   -0.000249   -0.000046
   -5   -3    0    7   26    0.000011    0.000050
   -5   -3    0    8   26   -0.000326   -0.000053
   -5   -3    0    9   26   -0.000040    0.000016
   -5   -3    0   10   26   -0.000330    0.000014
   -5   -3    0   11   26   -0.000032   -0.000023
   -5   -3    0   12   26   -0.000418    0.000096
   -5   -3    0   13   26   -0.000197   -0.000041
   -5   -3    0   14   26   -0.001071    0.000165
   -5   -3    0   15   26   -0.000021    0.000067
   -5   -3    0   16   26   -0.000470    0.000009
   -5   -3    0   17   26   -0.000072    0.000022
   -5   -3    0   18   26   -0.000302   -0.000044
   -5   -3    0   19   26   -0.000011   -0.000010
   -5   -3    0   20   26   -0.000253    0.000062
   -5   -3    0   21   26   -0.000026    0.000002
   -5   -3    0   22   26   -0.000090    0.000033
   -5   -3    0   23   26    0.000001   -0.000030
   -5   -3    0   24   26    0.000139    0.000062
   -5   -3    0   25   26    0.000051   -0.000012
   -5   -3    0   26   26   -0.000439   -0.000094
   -5   -3    0   27   26    0.000184    0.000060
   -5   -3    0   28   26    0.000956   -0.000239
   -5   -3    0    1   27   -0.000825   -0.000000
   -5   -3    0    2   27   -0.000040    0.000023
   -5   -3    0    3   27   -0.000562   -0.000010
   -5   -3    0    4   27    0.000066   -0.000029
   -5   -3    0    5   27    0.000311   -0.000017
   -5   -3    0    6   27   -0.000031    0.000033
   -5   -3    0    7   27   -0.000959   -0.000015
   -5   -3    0    8   27    0.000002   -0.000023
   -5   -3    0    9   27    0.001631   -0.000005
   -5   -3    0   10   27   -0.000025    0.000000
   -5   -3    0   11   27    0.000131   -0.000031
   -5   -3    0   12   27   -0.000105   -0.000008
   -5   -3    0   13   27    0.001434    0.000073
   -5   -3    0   14   27    0.000063    0.000095
   -5   -3    0   15   27    0.000050    0.000056
   -5   -3    0   16   27   -0.000033    0.000067
   -5   -3    0   17   27   -0.000943    0.000047
   -5   -3    0   18   27    0.000125    0.000081
   -5   -3    0   19   27   -0.000375   -0.000049
   -5   -3    0   20   27    0.000062    0.000040
   -5   -3    0   21   27    0.000071   -0.000051
   -5   -3    0   22   27    0.000004    0.000033
   -5   -3    0   23   27    0.001954    0.000038
   -5   -3    0   24   27    0.000070   -0.000045
   -5   -3    0   25   27    0.000482    0.000119
   -5   -3    0   26   27   -0.000108   -0.000037
   -5   -3    0   27   27   -0.002025   -0.000080
   -5   -3    0   28   27   -0.000038   -0.000081
   -5   -3    0    1   28    0.000040    0.000023
   -5   -3    0    2   28   -0.000825    0.000000
   -5   -3    0    3   28   -0.000066   -0.000029
   -5   -3    0    4   28   -0.000562    0.000010
   -5   -3    0    5   28    0.000031    0.000033
   -5   -3    0    6   28    0.000311    0.000017
   -5   -3    0    7   28   -0.000002   -0.000023
   -5   -3    0    8   28   -0.000959    0.000015
   -5   -3    0    9   28    0.000025    0.000000
   -5   -3    0   10   28    0.001631    0.000005
   -5   -3    0   11   28    0.000105   -0.000008
   -5   -3    0   12   28    0.000131    0.000031
   -5   -3    0   13   28   -0.000063    0.000095
   -5   -3    0   14   28    0.001434   -0.000073
   -5   -3    0   15   28    0.000033    0.000067
   -5   -3    0   16   28    0.000050   -0.000056
   -5   -3    0   17   28   -0.000125    0.000081
   -5   -3    0   18   28   -0.000943   -0.000047
   -5   -3    0   19   28   -0.000062    0.000040
   -5   -3    0   20   28   -0.000375    0.000049
   -5   -3    0   21   28   -0.000004    0.000033
   -5   -3    0   22   28    0.000071    0.000051
   -5   -3    0   23   28   -0.000070   -0.000045
   -5   -3    0   24   28    0.001954   -0.000038
   -5   -3    0   25   28    0.000108   -0.000037
   -5   -3    0   26   28    0.000482   -0.000119
   -5   -3    0   27   28    0.000038   -0.000081
   -5   -3    0   28   28   -0.002025    0.000080
   -5   -2    0    1    1    0.000024    0.000036
   -5   -2    0    2    1   -0.000029    0.000021
   -5   -2    0    3    1    0.000047   -0.000033
   -5   -2    0    4    1   -0.000009   -0.000005
   -5   -2    0    5    1    0.000325   -0.000037
   -5   -2    0    6    1    0.000045   -0.000012
   -5   -2    0    7    1    0.000201   -0.000014
   -5   -2    0    8    1   -0.000016   -0.000024
   -5   -2    0    9    1    0.000200   -0.000042
   -5   -2    0   10    1   -0.000006   -0.000016
   -5   -2    0   11    1   -0.000160    0.000035
   -5   -2    0   12    1   -0.000003   -0.000009
   -5   -2    0   13    1   -0.000374    0.000050
   -5   -2    0   14    1    0.000024   -0.000048
   -5   -2    0   15    1    0.000407   -0.000025
   -5   -2    0   16    1    0.000012   -0.000065
   -5   -2    0   17    1    0.000012    0.000016
   -5   -2    0   18    1   -0.000030   -0.000050
   -5   -2    0   19    1   -0.000330    0.000065
   -5   -2    0   20    1   -0.000036   -0.000052
   -5   -2    0   21    1   -0.000510    0.000026
   -5   -2    0   22    1   -0.000054   -0.000029
   -5   -2    0   23    1   -0.000019    0.000026
   -5   -2    0   24    1   -0.000064   -0.000076
   -5   -2    0   25    1    0.000016    0.000022
   -5   -2    0   26    1    0.000058    0.000013
   -5   -2    0   27    1    0.000256   -0.000064
   -5   -2    0   28    1   -0.000026    0.000061
   -5   -2    0    1    2    0.000029    0.000021
   -5   -2    0    2    2    0.000024   -0.000036
   -5   -2    0    3    2    0.000009   -0.000005
   -5   -2    0    4    2    0.000047    0.000033
   -5   -2    0    5    2   -0.000045   -0.000012
   -5   -2    0    6    2    0.000325    0.000037
   -5   -2    0    7    2    0.000016   -0.000024
   -5   -2    0    8    2    0.000201    0.000014
   -5   -2    0    9    2    0.000006   -0.000016
   -5   -2    0   10    2    0.000200    0.000042
   -5   -2    0   11    2    0.000003   -0.000009
   -5   -2    0   12    2   -0.000160   -0.000035
   -5   -2    0   13    2   -0.000024   -0.000048
   -5   -2    0   14    2   -0.000374   -0.000050
   -5   -2    0   15    2   -0.000012   -0.000065
   -5   -2    0   16    2    0.000407    0.000025
   -5   -2    0   17    2    0.000030   -0.000050
   -5   -2    0   18    2    0.000012   -0.000016
   -5   -2    0   19    2    0.000036   -0.000052
   -5   -2    0   20    2   -0.000330   -0.000065
   -5   -2    0   21    2    0.000054   -0.000029
   -5   -2    0   22    2   -0.000510   -0.000026
   -5   -2    0   23    2    0.000064   -0.000076
   -5   -2    0   24    2   -0.000019   -0.000026
   -5   -2    0   25    2   -0.000058    0.000013
   -5   -2    0   26    2    0.000016   -0.000022
   -5   -2    0   27    2    0.000026    0.000061
   -5   -2    0   28    2    0.000256    0.000064
   -5   -2    0    1    3    0.000094    0.000006
   -5   -2    0    2    3   -0.000029   -0.000032
   -5   -2    0    3    3    0.000067    0.000033
   -5   -2    0    4    3    0.000006   -0.000008
   -5   -2    0    5    3    0.000010    0.000040
   -5   -2    0    6    3    0.000048   -0.000010
   -5   -2    0    7    3    0.000104    0.000007
   -5   -2    0    8    3    0.000059   -0.000004
   -5   -2    0    9    3    0.000092   -0.000113
   -5   -2    0   10    3    0.000024   -0.000042
   -5   -2    0   11    3    0.000390    0.000044
   -5   -2    0   12    3   -0.000024   -0.000001
   -5   -2    0   13    3   -0.000233    0.000071
   -5   -2    0   14    3    0.000016    0.000026
   -5   -2    0   15    3    0.000183    0.000137
   -5   -2    0   16    3   -0.000034   -0.000032
   -5   -2    0   17    3   -0.000479    0.000060
   -5   -2    0   18    3    0.000137    0.000020
   -5   -2    0   19    3    0.000172    0.000019
   -5   -2    0   20    3   -0.000021    0.000010
   -5   -2    0   21    3   -0.000055    0.000030
   -5   -2    0   22    3   -0.000097    0.000008
   -5   -2    0   23    3    0.000211    0.000027
   -5   -2    0   24    3    0.000046   -0.000071
   -5   -2    0   25    3   -0.000117    0.000047
   -5   -2    0   26    3    0.000022    0.000008
   -5   -2    0   27    3    0.000289   -0.000090
   -5   -2    0   28    3    0.000024   -0.000060
   -5   -2    0    1    4    0.000029   -0.000032
   -5   -2    0    2    4    0.000094   -0.000006
   -5   -2    0    3    4   -0.000006   -0.000008
   -5   -2    0    4    4    0.000067   -0.000033
   -5   -2    0    5    4   -0.000048   -0.000010
   -5   -2    0    6    4    0.000010   -0.000040
   -5   -2    0    7    4   -0.000059   -0.000004
   -5   -2    0    8    4    0.000104   -0.000007
   -5   -2    0    9    4   -0.000024   -0.000042
   -5   -2    0   10    4    0.000092    0.000113
   -5   -2    0   11    4    0.000024   -0.000001
   -5   -2    0   12    4    0.000390   -0.000044
   -5   -2    0   13    4   -0.000016    0.000026
   -5   -2    0   14    4   -0.000233   -0.000071
   -5   -2    0   15    4    0.000034   -0.000032
   -5   -2    0   16    4    0.000183   -0.000137
   -5   -2    0   17    4   -0.000137    0.000020
   -5   -2    0   18    4   -0.000479   -0.000060
   -5   -2    0   19    4    0.000021    0.000010
   -5   -2    0   20    4    0.000172   -0.000019
   -5   -2    0   21    4    0.000097    0.000008
   -5   -2    0   22    4   -0.000055   -0.000030
   -5   -2    0   23    4   -0.000046   -0.000071
   -5   -2    0   24    4    0.000211   -0.000027
   -5   -2    0   25    4   -0.000022    0.000008
   -5   -2    0   26    4   -0.000117   -0.000047
   -5   -2    0   27    4   -0.000024   -0.000060
   -5   -2    0   28    4    0.000289    0.000090
   -5   -2    0    1    5   -0.000293    0.000028
   -5   -2    0    2    5    0.000052    0.000053
   -5   -2    0    3    5    0.000284   -0.000012
   -5   -2    0    4    5    0.000039    0.000040
   -5   -2    0    5    5   -0.000035    0.000112
   -5   -2    0    6    5   -0.000002   -0.000010
   -5   -2    0    7    5    0.000101   -0.000136
   -5   -2    0    8    5   -0.000008   -0.000018
   -5   -2    0    9    5    0.000409    0.000107
   -5   -2    0   10    5   -0.000053    0.000083
   -5   -2    0   11    5   -0.000053   -0.000079
   -5   -2    0   12    5   -0.000007   -0.000006
   -5   -2    0   13    5   -0.000296   -0.000021
   -5   -2    0   14    5    0.000021   -0.000001
   -5   -2    0   15    5    0.000344    0.000068
   -5   -2    0   16    5   -0.000078   -0.000019
   -5   -2    0   17    5    0.000028   -0.000139
   -5   -2    0   18    5   -0.000037   -0.000007
   -5   -2    0   19    5   -0.000237   -0.000066
   -5   -2    0   20    5    0.000040    0.000030
   -5   -2    0   21    5   -0.000410   -0.000050
   -5   -2    0   22    5    0.000049    0.000001
   -5   -2    0   23    5    0.000628   -0.000004
   -5   -2    0   24    5   -0.000036    0.000088
   -5   -2    0   25    5   -0.000226   -0.000037
   -5   -2    0   26    5    0.000073   -0.000070
   -5   -2    0   27    5    0.000620    0.000087
   -5   -2    0   28    5   -0.000024    0.000067
   -5   -2    0    1    6   -0.000052    0.000053
   -5   -2    0    2    6   -0.000293   -0.000028
   -5   -2    0    3    6   -0.000039    0.000040
   -5   -2    0    4    6    0.000284    0.000012
   -5   -2    0    5    6    0.000002   -0.000010
   -5   -2    0    6    6   -0.000035   -0.000112
   -5   -2    0    7    6    0.000008   -0.000018
   -5   -2    0    8    6    0.000101    0.000136
   -5   -2    0    9    6    0.000053    0.000083
   -5   -2    0   10    6    0.000409   -0.000107
   -5   -2    0   11    6    0.000007   -0.000006
   -5   -2    0   12    6   -0.000053    0.000079
   -5   -2    0   13    6   -0.000021   -0.000001
   -5   -2    0   14    6   -0.000296    0.000021
   -5   -2    0   15    6    0.000078   -0.000019
   -5   -2    0   16    6    0.000344   -0.000068
   -5   -2    0   17    6    0.000037   -0.000007
   -5   -2    0   18    6    0.000028    0.000139
   -5   -2    0   19    6   -0.000040    0.000030
   -5   -2    0   20    6   -0.000237    0.000066
   -5   -2    0   21    6   -0.000049    0.000001
   -5   -2    0   22    6   -0.000410    0.000050
   -5   -2    0   23    6    0.000036    0.000088
   -5   -2    0   24    6    0.000628    0.000004
   -5   -2    0   25    6   -0.000073   -0.000070
   -5   -2    0   26    6   -0.000226    0.000037
   -5   -2    0   27    6    0.000024    0.000067
   -5   -2    0   28    6    0.000620   -0.000087
   -5   -2    0    1    7    0.000081    0.000031
   -5   -2    0    2    7    0.000009    0.000080
   -5   -2    0    3    7    0.000126    0.000086
   -5   -2    0    4    7    0.000074   -0.000022
   -5   -2    0    5    7   -0.000078   -0.000054
   -5   -2    0    6    7   -0.000045    0.000029
   -5   -2    0    7    7   -0.000394    0.000013
   -5   -2    0    8    7    0.000011   -0.000007
   -5   -2    0    9    7    0.000112   -0.000002
   -5   -2    0   10    7   -0.000082    0.000028
   -5   -2    0   11    7    0.000150   -0.000008
   -5   -2    0   12    7    0.000032    0.000003
   -5   -2    0   13    7    0.000616   -0.000110
   -5   -2    0   14    7   -0.000047   -0.000051
   -5   -2    0   15    7    0.000321   -0.000117
   -5   -2    0   16    7   -0.000071   -0.000023
   -5   -2    0   17    7   -0.000428    0.000009
   -5   -2    0   18    7   -0.000046   -0.000073
   -5   -2    0   19    7    0.000206   -0.000021
   -5   -2    0   20    7    0.000025   -0.000018
   -5   -2    0   21    7    0.000407    0.000030
   -5   -2    0   22    7   -0.000066   -0.000074
   -5   -2    0   23    7   -0.000421   -0.000094
   -5   -2    0   24    7    0.000014   -0.000083
   -5   -2    0   25    7   -0.000274   -0.000026
   -5   -2    0   26    7   -0.000016    0.000000
   -5   -2    0   27    7   -0.000581    0.000146
   -5   -2    0   28    7    0.000009    0.000015
   -5   -2    0    1    8   -0.000009    0.000080
   -5   -2    0    2    8    0.000081   -0.000031
   -5   -2    0    3    8   -0.000074   -0.000022
   -5   -2    0    4    8    0.000126   -0.000086
   -5   -2    0    5    8    0.000045    0.000029
   -5   -2    0    6    8   -0.000078    0.000054
   -5   -2    0    7    8   -0.000011   -0.000007
   -5   -2    0    8    8   -0.000394   -0.000013
   -5   -2    0    9    8    0.000082    0.000028
   -5   -2    0   10    8    0.000112    0.000002
   -5   -2    0   11    8   -0.000032    0.000003
   -5   -2    0   12    8    0.000150    0.000008
   -5   -2    0   13    8    0.000047   -0.000051
   -5   -2    0   14    8    0.000616    0.000110
   -5   -2    0   15    8    0.000071   -0.000023
   -5   -2    0   16    8    0.000321    0.000117
   -5   -2    0   17    8    0.000046   -0.000073
   -5   -2    0   18    8   -0.000428   -0.000009
   -5   -2    0   19    8   -0.000025   -0.000018
   -5   -2    0   20    8    0.000206    0.000021
   -5   -2    0   21    8    0.000066   -0.000074
   -5   -2    0   22    8    0.000407   -0.000030
   -5   -2    0   23    8   -0.000014   -0.000083
   -5   -2    0   24    8   -0.000421    0.000094
   -5   -2    0   25    8    0.000016    0.000000
   -5   -2    0   26    8   -0.000274    0.000026
   -5   -2    0   27    8   -0.000009    0.000015
   -5   -2    0   28    8   -0.000581   -0.000146
   -5   -2    0    1    9    0.000152   -0.000019
   -5   -2    0    2    9   -0.000088    0.000025
   -5   -2    0    3    9    0.000132   -0.000168
   -5   -2    0    4    9    0.000017    0.000057
   -5   -2    0    5    9    0.000527    0.000059
   -5   -2    0    6    9    0.000025    0.000068
   -5   -2    0    7    9   -0.000394    0.000006
   -5   -2    0    8    9    0.000022   -0.000004
   -5   -2    0    9    9    0.000429   -0.000052
   -5   -2    0   10    9    0.000047    0.000030
   -5   -2    0   11    9   -0.001541    0.000065
   -5   -2    0   12    9    0.000033   -0.000004
   -5   -2    0   13    9   -0.002675    0.000042
   -5   -2    0   14    9    0.000046    0.000017
   -5   -2    0   15    9    0.000277   -0.000091
   -5   -2    0   16    9    0.000077    0.000035
   -5   -2    0   17    9   -0.000558   -0.000004
   -5   -2    0   18    9    0.000004   -0.000045
   -5   -2    0   19    9   -0.000512    0.000041
   -5   -2    0   20    9   -0.000051   -0.000020
   -5   -2    0   21    9   -0.000922    0.000067
   -5   -2    0   22    9    0.000061    0.000010
   -5   -2    0   23    9   -0.000363    0.000093
   -5   -2    0   24    9    0.000016    0.000014
   -5   -2    0   25    9   -0.000021    0.000049
   -5   -2    0   26    9   -0.000050    0.000076
   -5   -2    0   27    9    0.003991   -0.000117
   -5   -2    0   28    9    0.000004    0.000055
   -5   -2    0    1   10    0.000088    0.000025
   -5   -2    0    2   10    0.000152    0.000019
   -5   -2    0    3   10   -0.000017    0.000057
   -5   -2    0    4   10    0.000132    0.000168
   -5   -2    0    5   10   -0.000025    0.000068
   -5   -2    0    6   10    0.000527   -0.000060
   -5   -2    0    7   10   -0.000022   -0.000004
   -5   -2    0    8   10   -0.000394   -0.000006
   -5   -2    0    9   10   -0.000047    0.000030
   -5   -2    0   10   10    0.000429    0.000052
   -5   -2    0   11   10   -0.000033   -0.000004
   -5   -2    0   12   10   -0.001541   -0.000065
   -5   -2    0   13   10   -0.000046    0.000017
   -5   -2    0   14   10   -0.002675   -0.000042
   -5   -2    0   15   10   -0.000077    0.000035
   -5   -2    0   16   10    0.000277    0.000091
   -5   -2    0   17   10   -0.000004   -0.000045
   -5   -2    0   18   10   -0.000558    0.000004
   -5   -2    0   19   10    0.000051   -0.000020
   -5   -2    0   20   10   -0.000512   -0.000041
   -5   -2    0   21   10   -0.000061    0.000010
   -5   -2    0   22   10   -0.000922   -0.000067
   -5   -2    0   23   10   -0.000016    0.000014
   -5   -2    0   24   10   -0.000363   -0.000093
   -5   -2    0   25   10    0.000050    0.000076
   -5   -2    0   26   10   -0.000021   -0.000049
   -5   -2    0   27   10   -0.000004    0.000055
   -5   -2    0   28   10    0.003991    0.000117
   -5   -2    0    1   11    0.000285   -0.000000
   -5   -2    0    2   11   -0.000000   -0.000055
   -5   -2    0    3   11    0.000000    0.000065
   -5   -2    0    4   11    0.000019   -0.000000
   -5   -2    0    5   11   -0.000808   -0.000000
   -5   -2    0    6   11   -0.000000   -0.000024
   -5   -2    0    7   11   -0.000604    0.000000
   -5   -2    0    8   11    0.000000   -0.000016
   -5   -2    0    9   11   -0.000000    0.000025
   -5   -2    0   10   11    0.000072    0.000000
   -5   -2    0   11   11    0.000246   -0.000050
   -5   -2    0   12   11    0.000011    0.000060
   -5   -2    0   13   11    0.000258   -0.000051
   -5   -2    0   14   11    0.000034    0.000041
   -5   -2    0   15   11   -0.000016    0.000035
   -5   -2    0   16   11   -0.000033   -0.000025
   -5   -2    0   17   11   -0.000058    0.000005
   -5   -2    0   18   11    0.000007    0.000015
   -5   -2    0   19   11    0.000488   -0.000038
   -5   -2    0   20   11   -0.000047   -0.000006
   -5   -2    0   21   11    0.000250   -0.000029
   -5   -2    0   22   11    0.000017    0.000043
   -5   -2    0   23   11   -0.000243    0.000024
   -5   -2    0   24   11    0.000012   -0.000026
   -5   -2    0   25   11   -0.000566   -0.000046
   -5   -2    0   26   11    0.000022   -0.000019
   -5   -2    0   27   11   -0.000154    0.000063
   -5   -2    0   28   11   -0.000029   -0.000038
   -5   -2    0    1   12    0.000000   -0.000055
   -5   -2    0    2   12    0.000285    0.000000
   -5   -2    0    3   12   -0.000019   -0.000000
   -5   -2    0    4   12    0.000000   -0.000065
   -5   -2    0    5   12    0.000000   -0.000024
   -5   -2    0    6   12   -0.000808    0.000000
   -5   -2    0    7   12   -0.000000   -0.000016
   -5   -2    0    8   12   -0.000604   -0.000000
   -5   -2    0    9   12   -0.000072   -0.000000
   -5   -2    0   10   12   -0.000000   -0.000025
   -5   -2    0   11   12   -0.000011    0.000060
   -5   -2    0   12   12    0.000246    0.000050
   -5   -2    0   13   12   -0.000034    0.000041
   -5   -2    0   14   12    0.000258    0.000051
   -5   -2    0   15   12    0.000033   -0.000025
   -5   -2    0   16   12   -0.000016   -0.000035
   -5   -2    0   17   12   -0.000007    0.000015
   -5   -2    0   18   12   -0.000058   -0.000005
   -5   -2    0   19   12    0.000047   -0.000006
   -5   -2    0   20   12    0.000488    0.000038
   -5   -2    0   21   12   -0.000017    0.000043
   -5   -2    0   22   12    0.000250    0.000029
   -5   -2    0   23   12   -0.000012   -0.000026
   -5   -2    0   24   12   -0.000243   -0.000024
   -5   -2    0   25   12   -0.000022   -0.000019
   -5   -2    0   26   12   -0.000566    0.000046
   -5   -2    0   27   12    0.000029   -0.000038
   -5   -2    0   28   12   -0.000154   -0.000063
   -5   -2    0    1   13    0.000781   -0.000000
   -5   -2    0    2   13   -0.000000    0.000031
   -5   -2    0    3   13    0.000000   -0.000036
   -5   -2    0    4   13   -0.000065    0.000000
   -5   -2    0    5   13    0.000955   -0.000000
   -5   -2    0    6   13   -0.000000   -0.000085
   -5   -2    0    7   13   -0.001399    0.000000
   -5   -2    0    8   13   -0.000000    0.000018
   -5   -2    0    9   13    0.000000    0.000025
   -5   -2    0   10   13   -0.000024    0.000000
   -5   -2    0   11   13   -0.000494    0.000010
   -5   -2    0   12   13    0.000104    0.000061
   -5   -2    0   13   13   -0.001579    0.000164
   -5   -2    0   14   13   -0.000012   -0.000022
   -5   -2    0   15   13    0.000617    0.000076
   -5   -2    0   16   13   -0.000110    0.000011
   -5   -2    0   17   13   -0.000468    0.000024
   -5   -2    0   18   13    0.000026    0.000063
   -5   -2    0   19   13    0.000213   -0.000029
   -5   -2    0   20   13    0.000011   -0.000052
   -5   -2    0   21   13   -0.000200   -0.000004
   -5   -2    0   22   13    0.000009   -0.000033
   -5   -2    0   23   13   -0.001176    0.000071
   -5   -2    0   24   13    0.000061    0.000064
   -5   -2    0   25   13   -0.001225   -0.000012
   -5   -2    0   26   13   -0.000083   -0.000046
   -5   -2    0   27   13    0.002361   -0.000172
   -5   -2    0   28   13   -0.000032   -0.000001
   -5   -2    0    1   14   -0.000000    0.000031
   -5   -2    0    2   14    0.000781    0.000000
   -5   -2    0    3   14    0.000064    0.000000
   -5   -2    0    4   14    0.000000    0.000036
   -5   -2    0    5   14    0.000000   -0.000085
   -5   -2    0    6   14    0.000955    0.000000
   -5   -2    0    7   14    0.000000    0.000018
   -5   -2    0    8   14   -0.001399   -0.000000
   -5   -2    0    9   14    0.000024    0.000000
   -5   -2    0   10   14    0.000000   -0.000025
   -5   -2    0   11   14   -0.000104    0.000061
   -5   -2    0   12   14   -0.000494   -0.000010
   -5   -2    0   13   14    0.000012   -0.000022
   -5   -2    0   14   14   -0.001579   -0.000164
   -5   -2    0   15   14    0.000110    0.000011
   -5   -2    0   16   14    0.000617   -0.000076
   -5   -2    0   17   14   -0.000026    0.000063
   -5   -2    0   18   14   -0.000468   -0.000024
   -5   -2    0   19   14   -0.000011   -0.000052
   -5   -2    0   20   14    0.000213    0.000029
   -5   -2    0   21   14   -0.000009   -0.000033
   -5   -2    0   22   14   -0.000200    0.000004
   -5   -2    0   23   14   -0.000061    0.000064
   -5   -2    0   24   14   -0.001176   -0.000071
   -5   -2    0   25   14    0.000083   -0.000046
   -5   -2    0   26   14   -0.001225    0.000012
   -5   -2    0   27   14    0.000032   -0.000001
   -5   -2    0   28   14    0.002361    0.000172
   -5   -2    0    1   15    0.000000    0.000024
   -5   -2    0    2   15    0.000061    0.000000
   -5   -2    0    3   15    0.000502    0.000000
   -5   -2    0    4   15   -0.000000    0.000082
   -5   -2    0    5   15    0.000000    0.000160
   -5   -2    0    6   15   -0.000041    0.000000
   -5   -2    0    7   15   -0.000000   -0.000135
   -5   -2    0    8   15   -0.000008   -0.000000
   -5   -2    0    9   15    0.000114    0.000000
   -5   -2    0   10   15   -0.000000   -0.000002
   -5   -2    0   11   15    0.000071   -0.000005
   -5   -2    0   12   15   -0.000018   -0.000077
   -5   -2    0   13   15   -0.000886    0.000058
   -5   -2    0   14   15    0.000079   -0.000075
   -5   -2    0   15   15   -0.000094    0.000141
   -5   -2    0   16   15   -0.000044   -0.000012
   -5   -2    0   17   15   -0.000071   -0.000084
   -5   -2    0   18   15   -0.000018    0.000028
   -5   -2    0   19   15   -0.000048   -0.000010
   -5   -2    0   20   15    0.000014   -0.000023
   -5   -2    0   21   15   -0.000576   -0.000026
   -5   -2    0   22   15    0.000097    0.000027
   -5   -2    0   23   15   -0.000153    0.000005
   -5   -2    0   24   15    0.000038    0.000024
   -5   -2    0   25   15   -0.000209   -0.000003
   -5   -2    0   26   15    0.000015   -0.000041
   -5   -2    0   27   15    0.001230   -0.000065
   -5   -2    0   28   15   -0.000023    0.000146
   -5   -2    0    1   16   -0.000061    0.000000
   -5   -2    0    2   16    0.000000   -0.000024
   -5   -2    0    3   16    0.000000    0.000082
   -5   -2    0    4   16    0.000502   -0.000000
   -5   -2    0    5   16    0.000041    0.000000
   -5   -2    0    6   16    0.000000   -0.000160
   -5   -2    0    7   16    0.000008   -0.000000
   -5   -2    0    8   16   -0.000000    0.000135
   -5   -2    0    9   16    0.000000   -0.000002
   -5   -2    0   10   16    0.000114   -0.000000
   -5   -2    0   11   16    0.000018   -0.000077
   -5   -2    0   12   16    0.000071    0.000005
   -5   -2    0   13   16   -0.000079   -0.000075
   -5   -2    0   14   16   -0.000886   -0.000058
   -5   -2    0   15   16    0.000044   -0.000012
   -5   -2    0   16   16   -0.000094   -0.000141
   -5   -2    0   17   16    0.000018    0.000028
   -5   -2    0   18   16   -0.000071    0.000084
   -5   -2    0   19   16   -0.000014   -0.000023
   -5   -2    0   20   16   -0.000048    0.000010
   -5   -2    0   21   16   -0.000097    0.000027
   -5   -2    0   22   16   -0.000576    0.000026
   -5   -2    0   23   16   -0.000038    0.000024
   -5   -2    0   24   16   -0.000153   -0.000005
   -5   -2    0   25   16   -0.000015   -0.000041
   -5   -2    0   26   16   -0.000209    0.000003
   -5   -2    0   27   16    0.000023    0.000146
   -5   -2    0   28   16    0.001230    0.000065
   -5   -2    0    1   17   -0.000057   -0.000000
   -5   -2    0    2   17   -0.000000   -0.000047
   -5   -2    0    3   17   -0.000000    0.000128
   -5   -2    0    4   17    0.000101    0.000000
   -5   -2    0    5   17   -0.000426    0.000000
   -5   -2    0    6   17    0.000000    0.000032
   -5   -2    0    7   17   -0.000188    0.000000
   -5   -2    0    8   17    0.000000    0.000055
   -5   -2    0    9   17    0.000000   -0.000123
   -5   -2    0   10   17    0.000018   -0.000000
   -5   -2    0   11   17    0.000773   -0.000018
   -5   -2    0   12   17   -0.000034    0.000029
   -5   -2    0   13   17    0.001768   -0.000045
   -5   -2    0   14   17    0.000037   -0.000027
   -5   -2    0   15   17    0.000214    0.000074
   -5   -2    0   16   17   -0.000016    0.000088
   -5   -2    0   17   17    0.000053    0.000112
   -5   -2    0   18   17    0.000093    0.000045
   -5   -2    0   19   17    0.000529   -0.000002
   -5   -2    0   20   17   -0.000018   -0.000021
   -5   -2    0   21   17    0.000855    0.000015
   -5   -2    0   22   17    0.000015   -0.000035
   -5   -2    0   23   17    0.000044    0.000004
   -5   -2    0   24   17   -0.000018   -0.000077
   -5   -2    0   25   17    0.000140    0.000050
   -5   -2    0   26   17   -0.000036    0.000054
   -5   -2    0   27   17   -0.002241    0.000064
   -5   -2    0   28   17    0.000007   -0.000075
   -5   -2    0    1   18    0.000000   -0.000047
   -5   -2    0    2   18   -0.000057    0.000000
   -5   -2    0    3   18   -0.000101    0.000000
   -5   -2    0    4   18   -0.000000   -0.000128
   -5   -2    0    5   18   -0.000000    0.000032
   -5   -2    0    6   18   -0.000426   -0.000000
   -5   -2    0    7   18   -0.000000    0.000055
   -5   -2    0    8   18   -0.000188   -0.000000
   -5   -2    0    9   18   -0.000018    0.000000
   -5   -2    0   10   18    0.000000    0.000123
   -5   -2    0   11   18    0.000034    0.000029
   -5   -2    0   12   18    0.000773    0.000018
   -5   -2    0   13   18   -0.000037   -0.000027
   -5   -2    0   14   18    0.001768    0.000045
   -5   -2    0   15   18    0.000016    0.000088
   -5   -2    0   16   18    0.000214   -0.000074
   -5   -2    0   17   18   -0.000093    0.000045
   -5   -2    0   18   18    0.000053   -0.000112
   -5   -2    0   19   18    0.000018   -0.000021
   -5   -2    0   20   18    0.000529    0.000002
   -5   -2    0   21   18   -0.000015   -0.000035
   -5   -2    0   22   18    0.000855   -0.000015
   -5   -2    0   23   18    0.000018   -0.000077
   -5   -2    0   24   18    0.000044   -0.000004
   -5   -2    0   25   18    0.000036    0.000054
   -5   -2    0   26   18    0.000140   -0.000050
   -5   -2    0   27   18   -0.000007   -0.000075
   -5   -2    0   28   18   -0.002241   -0.000064
   -5   -2    0    1   19    0.000007    0.000000
   -5   -2    0    2   19    0.000000   -0.000073
   -5   -2    0    3   19    0.000000    0.000033
   -5   -2    0    4   19    0.000017    0.000000
   -5   -2    0    5   19   -0.000157    0.000000
   -5   -2    0    6   19   -0.000000   -0.000062
   -5   -2    0    7   19   -0.000003    0.000000
   -5   -2    0    8   19   -0.000000    0.000036
   -5   -2    0    9   19    0.000000    0.000027
   -5   -2    0   10   19    0.000012    0.000000
   -5   -2    0   11   19    0.000136   -0.000069
   -5   -2    0   12   19    0.000016   -0.000018
   -5   -2    0   13   19    0.000186   -0.000100
   -5   -2    0   14   19    0.000071    0.000021
   -5   -2    0   15   19    0.000103    0.000042
   -5   -2    0   16   19   -0.000036    0.000026
   -5   -2    0   17   19    0.000045    0.000013
   -5   -2    0   18   19    0.000044    0.000069
   -5   -2    0   19   19   -0.000019   -0.000038
   -5   -2    0   20   19    0.000009   -0.000024
   -5   -2    0   21   19    0.000072   -0.000024
   -5   -2    0   22   19    0.000087    0.000024
   -5   -2    0   23   19    0.000062    0.000042
   -5   -2    0   24   19    0.000051    0.000005
   -5   -2    0   25   19   -0.000025    0.000013
   -5   -2    0   26   19   -0.000041   -0.000064
   -5   -2    0   27   19   -0.000393    0.000143
   -5   -2    0   28   19   -0.000030   -0.000002
   -5   -2    0    1   20   -0.000000   -0.000073
   -5   -2    0    2   20    0.000007   -0.000000
   -5   -2    0    3   20   -0.000017    0.000000
   -5   -2    0    4   20    0.000000   -0.000033
   -5   -2    0    5   20    0.000000   -0.000062
   -5   -2    0    6   20   -0.000157   -0.000000
   -5   -2    0    7   20    0.000000    0.000036
   -5   -2    0    8   20   -0.000003   -0.000000
   -5   -2    0    9   20   -0.000012    0.000000
   -5   -2    0   10   20    0.000000   -0.000027
   -5   -2    0   11   20   -0.000016   -0.000018
   -5   -2    0   12   20    0.000136    0.000069
   -5   -2    0   13   20   -0.000071    0.000021
   -5   -2    0   14   20    0.000186    0.000100
   -5   -2    0   15   20    0.000036    0.000026
   -5   -2    0   16   20    0.000103   -0.000042
   -5   -2    0   17   20   -0.000044    0.000069
   -5   -2    0   18   20    0.000045   -0.000013
   -5   -2    0   19   20   -0.000009   -0.000024
   -5   -2    0   20   20   -0.000019    0.000038
   -5   -2    0   21   20   -0.000087    0.000024
   -5   -2    0   22   20    0.000072    0.000024
   -5   -2    0   23   20   -0.000051    0.000005
   -5   -2    0   24   20    0.000062   -0.000042
   -5   -2    0   25   20    0.000041   -0.000064
   -5   -2    0   26   20   -0.000025   -0.000013
   -5   -2    0   27   20    0.000030   -0.000002
   -5   -2    0   28   20   -0.000393   -0.000143
   -5   -2    0    1   21    0.000238    0.000000
   -5   -2    0    2   21    0.000000   -0.000044
   -5   -2    0    3   21    0.000000   -0.000005
   -5   -2    0    4   21    0.000007    0.000000
   -5   -2    0    5   21    0.000165    0.000000
   -5   -2    0    6   21   -0.000000   -0.000132
   -5   -2    0    7   21    0.000361    0.000000
   -5   -2    0    8   21   -0.000000    0.000057
   -5   -2    0    9   21    0.000000    0.000054
   -5   -2    0   10   21   -0.000082    0.000000
   -5   -2    0   11   21    0.000281   -0.000088
   -5   -2    0   12   21   -0.000021    0.000017
   -5   -2    0   13   21    0.000425   -0.000094
   -5   -2    0   14   21   -0.000002    0.000104
   -5   -2    0   15   21    0.000197    0.000033
   -5   -2    0   16   21   -0.000063    0.000050
   -5   -2    0   17   21    0.000178    0.000016
   -5   -2    0   18   21    0.000070    0.000107
   -5   -2    0   19   21    0.000105   -0.000038
   -5   -2    0   20   21    0.000034    0.000006
   -5   -2    0   21   21    0.000122   -0.000036
   -5   -2    0   22   21    0.000071    0.000065
   -5   -2    0   23   21   -0.000152    0.000060
   -5   -2    0   24   21    0.000011    0.000014
   -5   -2    0   25   21    0.000106   -0.000011
   -5   -2    0   26   21    0.000010   -0.000045
   -5   -2    0   27   21   -0.000739    0.000159
   -5   -2    0   28   21    0.000069   -0.000069
   -5   -2    0    1   22   -0.000000   -0.000044
   -5   -2    0    2   22    0.000238   -0.000000
   -5   -2    0    3   22   -0.000007    0.000000
   -5   -2    0    4   22    0.000000    0.000005
   -5   -2    0    5   22    0.000000   -0.000132
   -5   -2    0    6   22    0.000165   -0.000000
   -5   -2    0    7   22    0.000000    0.000057
   -5   -2    0    8   22    0.000361   -0.000000
   -5   -2    0    9   22    0.000082    0.000000
   -5   -2    0   10   22    0.000000   -0.000054
   -5   -2    0   11   22    0.000021    0.000017
   -5   -2    0   12   22    0.000281    0.000088
   -5   -2    0   13   22    0.000002    0.000104
   -5   -2    0   14   22    0.000425    0.000094
   -5   -2    0   15   22    0.000063    0.000050
   -5   -2    0   16   22    0.000197   -0.000033
   -5   -2    0   17   22   -0.000070    0.000107
   -5   -2    0   18   22    0.000178   -0.000016
   -5   -2    0   19   22   -0.000034    0.000006
   -5   -2    0   20   22    0.000105    0.000038
   -5   -2    0   21   22   -0.000071    0.000065
   -5   -2    0   22   22    0.000122    0.000036
   -5   -2    0   23   22   -0.000011    0.000014
   -5   -2    0   24   22   -0.000152   -0.000060
   -5   -2    0   25   22   -0.000010   -0.000045
   -5   -2    0   26   22    0.000106    0.000011
   -5   -2    0   27   22   -0.000069   -0.000069
   -5   -2    0   28   22   -0.000739   -0.000159
   -5   -2    0    1   23   -0.000000    0.000010
   -5   -2    0    2   23   -0.000089    0.000000
   -5   -2    0    3   23   -0.000159   -0.000000
   -5   -2    0    4   23   -0.000000   -0.000018
   -5   -2    0    5   23    0.000000    0.000006
   -5   -2    0    6   23    0.000005   -0.000000
   -5   -2    0    7   23    0.000000    0.000045
   -5   -2    0    8   23    0.000014   -0.000000
   -5   -2    0    9   23   -0.000515   -0.000000
   -5   -2    0   10   23    0.000000   -0.000019
   -5   -2    0   11   23   -0.000086    0.000056
   -5   -2    0   12   23    0.000014    0.000049
   -5   -2    0   13   23   -0.000233    0.000123
   -5   -2    0   14   23    0.000098    0.000164
   -5   -2    0   15   23   -0.000614   -0.000063
   -5   -2    0   16   23    0.000079    0.000024
   -5   -2    0   17   23    0.000025    0.000011
   -5   -2    0   18   23   -0.000003   -0.000086
   -5   -2    0   19   23   -0.000120    0.000050
   -5   -2    0   20   23    0.000023    0.000033
   -5   -2    0   21   23    0.000233    0.000019
   -5   -2    0   22   23    0.000011   -0.000006
   -5   -2    0   23   23   -0.000436   -0.000111
   -5   -2    0   24   23   -0.000059   -0.000027
   -5   -2    0   25   23    0.000598    0.000050
   -5   -2    0   26   23    0.000014    0.000035
   -5   -2    0   27   23   -0.000138   -0.000180
   -5   -2    0   28   23   -0.000092   -0.000175
   -5   -2    0    1   24    0.000089    0.000000
   -5   -2    0    2   24   -0.000000   -0.000010
   -5   -2    0    3   24    0.000000   -0.000018
   -5   -2    0    4   24   -0.000159    0.000000
   -5   -2    0    5   24   -0.000005    0.000000
   -5   -2    0    6   24    0.000000   -0.000006
   -5   -2    0    7   24   -0.000014   -0.000000
   -5   -2    0    8   24    0.000000   -0.000045
   -5   -2    0    9   24   -0.000000   -0.000019
   -5   -2    0   10   24   -0.000515    0.000000
   -5   -2    0   11   24   -0.000014    0.000049
   -5   -2    0   12   24   -0.000086   -0.000056
   -5   -2    0   13   24   -0.000098    0.000164
   -5   -2    0   14   24   -0.000233   -0.000123
   -5   -2    0   15   24   -0.000079    0.000024
   -5   -2    0   16   24   -0.000614    0.000063
   -5   -2    0   17   24    0.000003   -0.000086
   -5   -2    0   18   24    0.000025   -0.000011
   -5   -2    0   19   24   -0.000023    0.000033
   -5   -2    0   20   24   -0.000120   -0.000050
   -5   -2    0   21   24   -0.000011   -0.000006
   -5   -2    0   22   24    0.000233   -0.000019
   -5   -2    0   23   24    0.000059   -0.000027
   -5   -2    0   24   24   -0.000436    0.000111
   -5   -2    0   25   24   -0.000014    0.000035
   -5   -2    0   26   24    0.000598   -0.000050
   -5   -2    0   27   24    0.000092   -0.000175
   -5   -2    0   28   24   -0.000138    0.000180
   -5   -2    0    1   25   -0.000137    0.000000
   -5   -2    0    2   25    0.000000    0.000033
   -5   -2    0    3   25    0.000000    0.000098
   -5   -2    0    4   25   -0.000020    0.000000
   -5   -2    0    5   25   -0.000507   -0.000000
   -5   -2    0    6   25    0.000000   -0.000031
   -5   -2    0    7   25    0.000274   -0.000000
   -5   -2    0    8   25   -0.000000   -0.000082
   -5   -2    0    9   25    0.000000    0.000078
   -5   -2    0   10   25   -0.000095   -0.000000
   -5   -2    0   11   25    0.000753   -0.000094
   -5   -2    0   12   25    0.000026    0.000006
   -5   -2    0   13   25    0.001865   -0.000129
   -5   -2    0   14   25    0.000037   -0.000095
   -5   -2    0   15   25   -0.000052   -0.000044
   -5   -2    0   16   25   -0.000025   -0.000030
   -5   -2    0   17   25    0.000601   -0.000041
   -5   -2    0   18   25   -0.000075   -0.000072
   -5   -2    0   19   25    0.000313   -0.000033
   -5   -2    0   20   25    0.000044    0.000027
   -5   -2    0   21   25    0.000599   -0.000032
   -5   -2    0   22   25   -0.000012   -0.000054
   -5   -2    0   23   25   -0.000057   -0.000090
   -5   -2    0   24   25   -0.000013    0.000004
   -5   -2    0   25   25    0.000376   -0.000112
   -5   -2    0   26   25    0.000041   -0.000000
   -5   -2    0   27   25   -0.002321    0.000175
   -5   -2    0   28   25   -0.000070    0.000077
   -5   -2    0    1   26   -0.000000    0.000033
   -5   -2    0    2   26   -0.000137   -0.000000
   -5   -2    0    3   26    0.000020    0.000000
   -5   -2    0    4   26    0.000000   -0.000098
   -5   -2    0    5   26   -0.000000   -0.000031
   -5   -2    0    6   26   -0.000507    0.000000
   -5   -2    0    7   26    0.000000   -0.000082
   -5   -2    0    8   26    0.000274    0.000000
   -5   -2    0    9   26    0.000095   -0.000000
   -5   -2    0   10   26    0.000000   -0.000078
   -5   -2    0   11   26   -0.000026    0.000006
   -5   -2    0   12   26    0.000753    0.000094
   -5   -2    0   13   26   -0.000037   -0.000095
   -5   -2    0   14   26    0.001865    0.000129
   -5   -2    0   15   26    0.000025   -0.000030
   -5   -2    0   16   26   -0.000052    0.000044
   -5   -2    0   17   26    0.000075   -0.000072
   -5   -2    0   18   26    0.000601    0.000041
   -5   -2    0   19   26   -0.000044    0.000027
   -5   -2    0   20   26    0.000313    0.000033
   -5   -2    0   21   26    0.000012   -0.000054
   -5   -2    0   22   26    0.000599    0.000032
   -5   -2    0   23   26    0.000013    0.000004
   -5   -2    0   24   26   -0.000057    0.000090
   -5   -2    0   25   26   -0.000041   -0.000000
   -5   -2    0   26   26    0.000376    0.000112
   -5   -2    0   27   26    0.000070    0.000077
   -5   -2    0   28   26   -0.002321   -0.000175
   -5   -2    0    1   27   -0.000825    0.000000
   -5   -2    0    2   27    0.000000   -0.000045
   -5   -2    0    3   27   -0.000000    0.000019
   -5   -2    0    4   27    0.000016   -0.000000
   -5   -2    0    5   27   -0.000624    0.000000
   -5   -2    0    6   27    0.000000    0.000080
   -5   -2    0    7   27    0.001872   -0.000000
   -5   -2    0    8   27    0.000000   -0.000026
   -5   -2    0    9   27   -0.000000    0.000021
   -5   -2    0   10   27   -0.000022   -0.000000
   -5   -2    0   11   27    0.000130    0.000032
   -5   -2    0   12   27   -0.000058   -0.000085
   -5   -2    0   13   27    0.001441   -0.000073
   -5   -2    0   14   27    0.000113    0.000006
   -5   -2    0   15   27   -0.000783   -0.000071
   -5   -2    0   16   27    0.000136    0.000027
   -5   -2    0   17   27    0.000472   -0.000023
   -5   -2    0   18   27   -0.000028   -0.000086
   -5   -2    0   19   27   -0.000360    0.000051
   -5   -2    0   20   27    0.000064    0.000033
   -5   -2    0   21   27    0.000081    0.000052
   -5   -2    0   22   27    0.000030   -0.000012
   -5   -2    0   23   27    0.001347   -0.000123
   -5   -2    0   24   27   -0.000083   -0.000017
   -5   -2    0   25   27    0.001458    0.000028
   -5   -2    0   26   27    0.000040    0.000103
   -5   -2    0   27   27   -0.002028    0.000081
   -5   -2    0   28   27   -0.000089    0.000008
   -5   -2    0    1   28    0.000000   -0.000045
   -5   -2    0    2   28   -0.000825   -0.000000
   -5   -2    0    3   28   -0.000016   -0.000000
   -5   -2    0    4   28   -0.000000   -0.000019
   -5   -2    0    5   28   -0.000000    0.000080
   -5   -2    0    6   28   -0.000624   -0.000000
   -5   -2    0    7   28   -0.000000   -0.000026
   -5   -2    0    8   28    0.001872    0.000000
   -5   -2    0    9   28    0.000022   -0.000000
   -5   -2    0   10   28   -0.000000   -0.000021
   -5   -2    0   11   28    0.000058   -0.000085
   -5   -2    0   12   28    0.000130   -0.000032
   -5   -2    0   13   28   -0.000113    0.000006
   -5   -2    0   14   28    0.001441    0.000073
   -5   -2    0   15   28   -0.000136    0.000027
   -5   -2    0   16   28   -0.000783    0.000071
   -5   -2    0   17   28    0.000028   -0.000086
   -5   -2    0   18   28    0.000472    0.000023
   -5   -2    0   19   28   -0.000064    0.000033
   -5   -2    0   20   28   -0.000360   -0.000051
   -5   -2    0   21   28   -0.000030   -0.000012
   -5   -2    0   22   28    0.000081   -0.000052
   -5   -2    0   23   28    0.000083   -0.000017
   -5   -2    0   24   28    0.001347    0.000123
   -5   -2    0   25   28   -0.000040    0.000103
   -5   -2    0   26   28    0.001458   -0.000028
   -5   -2    0   27   28    0.000089    0.000008
   -5   -2    0   28   28   -0.002028   -0.000081
   -4   -5    0    1    1    0.000251    0.000000
   -4   -5    0    2    1    0.000017   -0.000011
   -4   -5    0    3    1    0.000533    0.000027
   -4   -5    0    4    1    0.000038    0.000066
   -4   -5    0    5    1   -0.000309    0.000047
   -4   -5    0    6    1    0.000064    0.000112
   -4   -5    0    7    1   -0.000022   -0.000028
   -4   -5    0    8    1    0.000041   -0.000032
   -4   -5    0    9    1    0.000040   -0.000016
   -4   -5    0   10    1   -0.000080    0.000042
   -4   -5    0   11    1   -0.000598   -0.000027
   -4   -5    0   12    1   -0.000031   -0.000010
   -4   -5    0   13    1   -0.001557   -0.000041
   -4   -5    0   14    1   -0.000051   -0.000048
   -4   -5    0   15    1   -0.000089   -0.000021
   -4   -5    0   16    1   -0.000052    0.000053
   -4   -5    0   17    1    0.000342   -0.000051
   -4   -5    0   18    1    0.000054   -0.000039
   -4   -5    0   19    1   -0.000316   -0.000021
   -4   -5    0   20    1   -0.000059   -0.000033
   -4   -5    0   21    1   -0.000546   -0.000047
   -4   -5    0   22    1   -0.000025   -0.000023
[...]
    5    3    0   22   14    0.000425    0.000095
    5    3    0   23   14    0.000038   -0.000070
    5    3    0   24   14    0.001544    0.000051
    5    3    0   25   14    0.000197    0.000041
    5    3    0   26   14   -0.001071   -0.000165
    5    3    0   27   14    0.000063   -0.000095
    5    3    0   28   14    0.001434    0.000073
    5    3    0    1   15    0.000225   -0.000000
    5    3    0    2   15    0.000073   -0.000022
    5    3    0    3   15    0.000013   -0.000011
    5    3    0    4   15    0.000015    0.000004
    5    3    0    5   15   -0.000446    0.000148
    5    3    0    6   15   -0.000071   -0.000105
    5    3    0    7   15   -0.000212   -0.000015
    5    3    0    8   15   -0.000051   -0.000057
    5    3    0    9   15   -0.000366   -0.000069
    5    3    0   10   15    0.000090   -0.000003
    5    3    0   11   15   -0.000103    0.000022
    5    3    0   12   15    0.000005    0.000010
    5    3    0   13   15   -0.000120    0.000059
    5    3    0   14   15   -0.000039    0.000056
    5    3    0   15   15    0.000057    0.000117
    5    3    0   16   15   -0.000093    0.000004
    5    3    0   17   15   -0.000178   -0.000068
    5    3    0   18   15    0.000055    0.000046
    5    3    0   19   15    0.000109    0.000032
    5    3    0   20   15   -0.000073    0.000020
    5    3    0   21   15    0.000258    0.000030
    5    3    0   22   15   -0.000117    0.000034
    5    3    0   23   15    0.000283   -0.000060
    5    3    0   24   15    0.000113   -0.000007
    5    3    0   25   15   -0.000470    0.000009
    5    3    0   26   15   -0.000021   -0.000067
    5    3    0   27   15    0.000050   -0.000056
    5    3    0   28   15    0.000033   -0.000067
    5    3    0    1   16   -0.000073   -0.000022
    5    3    0    2   16    0.000225    0.000000
    5    3    0    3   16   -0.000015    0.000004
    5    3    0    4   16    0.000013    0.000011
    5    3    0    5   16    0.000071   -0.000105
    5    3    0    6   16   -0.000446   -0.000148
    5    3    0    7   16    0.000051   -0.000057
    5    3    0    8   16   -0.000212    0.000015
    5    3    0    9   16   -0.000090   -0.000003
    5    3    0   10   16   -0.000366    0.000069
    5    3    0   11   16   -0.000005    0.000010
    5    3    0   12   16   -0.000103   -0.000022
    5    3    0   13   16    0.000039    0.000056
    5    3    0   14   16   -0.000120   -0.000059
    5    3    0   15   16    0.000093    0.000004
    5    3    0   16   16    0.000057   -0.000117
    5    3    0   17   16   -0.000055    0.000046
    5    3    0   18   16   -0.000178    0.000068
    5    3    0   19   16    0.000073    0.000020
    5    3    0   20   16    0.000109   -0.000032
    5    3    0   21   16    0.000117    0.000034
    5    3    0   22   16    0.000258   -0.000030
    5    3    0   23   16   -0.000113   -0.000007
    5    3    0   24   16    0.000283    0.000060
    5    3    0   25   16    0.000021   -0.000067
    5    3    0   26   16   -0.000470   -0.000009
    5    3    0   27   16   -0.000033   -0.000067
    5    3    0   28   16    0.000050    0.000056
    5    3    0    1   17    0.000359   -0.000029
    5    3    0    2   17    0.000013   -0.000037
    5    3    0    3   17    0.000389    0.000155
    5    3    0    4   17    0.000070    0.000065
    5    3    0    5   17    0.000282    0.000011
    5    3    0    6   17    0.000055    0.000038
    5    3    0    7   17    0.000201   -0.000014
    5    3    0    8   17   -0.000074   -0.000044
    5    3    0    9   17    0.000669   -0.000127
    5    3    0   10   17   -0.000032    0.000028
    5    3    0   11   17    0.000030    0.000026
    5    3    0   12   17    0.000041    0.000012
    5    3    0   13   17    0.000787    0.000052
    5    3    0   14   17    0.000075    0.000083
    5    3    0   15   17    0.000123    0.000088
    5    3    0   16   17    0.000005    0.000072
    5    3    0   17   17   -0.000090    0.000138
    5    3    0   18   17    0.000040   -0.000028
    5    3    0   19   17    0.000062    0.000029
    5    3    0   20   17    0.000036    0.000038
    5    3    0   21   17    0.000081    0.000020
    5    3    0   22   17    0.000054    0.000072
    5    3    0   23   17   -0.000558   -0.000045
    5    3    0   24   17   -0.000058   -0.000021
    5    3    0   25   17   -0.000302   -0.000044
    5    3    0   26   17   -0.000072   -0.000022
    5    3    0   27   17   -0.000943   -0.000047
    5    3    0   28   17   -0.000125   -0.000081
    5    3    0    1   18   -0.000013   -0.000037
    5    3    0    2   18    0.000359    0.000029
    5    3    0    3   18   -0.000070    0.000065
    5    3    0    4   18    0.000389   -0.000155
    5    3    0    5   18   -0.000055    0.000038
    5    3    0    6   18    0.000282   -0.000011
    5    3    0    7   18    0.000074   -0.000044
    5    3    0    8   18    0.000201    0.000014
    5    3    0    9   18    0.000032    0.000028
    5    3    0   10   18    0.000669    0.000127
    5    3    0   11   18   -0.000041    0.000012
    5    3    0   12   18    0.000030   -0.000026
    5    3    0   13   18   -0.000075    0.000083
    5    3    0   14   18    0.000787   -0.000052
    5    3    0   15   18   -0.000005    0.000072
    5    3    0   16   18    0.000123   -0.000088
    5    3    0   17   18   -0.000040   -0.000028
    5    3    0   18   18   -0.000090   -0.000138
    5    3    0   19   18   -0.000036    0.000038
    5    3    0   20   18    0.000062   -0.000029
    5    3    0   21   18   -0.000054    0.000072
    5    3    0   22   18    0.000081   -0.000020
    5    3    0   23   18    0.000058   -0.000021
    5    3    0   24   18   -0.000558    0.000045
    5    3    0   25   18    0.000072   -0.000022
    5    3    0   26   18   -0.000302    0.000044
    5    3    0   27   18    0.000125   -0.000081
    5    3    0   28   18   -0.000943    0.000047
    5    3    0    1   19   -0.000336    0.000065
    5    3    0    2   19    0.000061    0.000004
    5    3    0    3   19   -0.000117   -0.000050
    5    3    0    4   19   -0.000040   -0.000005
    5    3    0    5   19    0.000267    0.000048
    5    3    0    6   19    0.000023    0.000032
    5    3    0    7   19   -0.000555    0.000048
    5    3    0    8   19    0.000036    0.000046
    5    3    0    9   19   -0.000048    0.000000
    5    3    0   10   19    0.000024   -0.000008
    5    3    0   11   19    0.000485   -0.000037
    5    3    0   12   19    0.000030    0.000038
    5    3    0   13   19    0.000230   -0.000027
    5    3    0   14   19    0.000040   -0.000034
    5    3    0   15   19    0.000438   -0.000007
    5    3    0   16   19    0.000028   -0.000007
    5    3    0   17   19   -0.000313   -0.000008
    5    3    0   18   19   -0.000001   -0.000025
    5    3    0   19   19   -0.000003   -0.000037
    5    3    0   20   19    0.000017   -0.000018
    5    3    0   21   19    0.000108   -0.000038
    5    3    0   22   19   -0.000021   -0.000025
    5    3    0   23   19    0.000227   -0.000003
    5    3    0   24   19   -0.000056   -0.000021
    5    3    0   25   19   -0.000253    0.000062
    5    3    0   26   19   -0.000011    0.000010
    5    3    0   27   19   -0.000375    0.000049
    5    3    0   28   19   -0.000062   -0.000040
    5    3    0    1   20   -0.000061    0.000004
    5    3    0    2   20   -0.000336   -0.000065
    5    3    0    3   20    0.000040   -0.000005
    5    3    0    4   20   -0.000117    0.000050
    5    3    0    5   20   -0.000023    0.000032
    5    3    0    6   20    0.000267   -0.000048
    5    3    0    7   20   -0.000036    0.000046
    5    3    0    8   20   -0.000555   -0.000048
    5    3    0    9   20   -0.000024   -0.000008
    5    3    0   10   20   -0.000048   -0.000000
    5    3    0   11   20   -0.000030    0.000038
    5    3    0   12   20    0.000485    0.000037
    5    3    0   13   20   -0.000040   -0.000034
    5    3    0   14   20    0.000230    0.000027
    5    3    0   15   20   -0.000028   -0.000007
    5    3    0   16   20    0.000438    0.000007
    5    3    0   17   20    0.000001   -0.000025
    5    3    0   18   20   -0.000313    0.000008
    5    3    0   19   20   -0.000017   -0.000018
    5    3    0   20   20   -0.000003    0.000037
    5    3    0   21   20    0.000021   -0.000025
    5    3    0   22   20    0.000108    0.000038
    5    3    0   23   20    0.000056   -0.000021
    5    3    0   24   20    0.000227    0.000003
    5    3    0   25   20    0.000011    0.000010
    5    3    0   26   20   -0.000253   -0.000062
    5    3    0   27   20    0.000062   -0.000040
    5    3    0   28   20   -0.000375   -0.000049
    5    3    0    1   21   -0.000511    0.000025
    5    3    0    2   21    0.000051    0.000032
    5    3    0    3   21   -0.000354   -0.000029
    5    3    0    4   21   -0.000001    0.000008
    5    3    0    5   21    0.000156    0.000049
    5    3    0    6   21    0.000047    0.000099
    5    3    0    7   21   -0.000991    0.000047
    5    3    0    8   21   -0.000082   -0.000051
    5    3    0    9   21   -0.000079    0.000059
    5    3    0   10   21    0.000063   -0.000006
    5    3    0   11   21    0.000249   -0.000028
    5    3    0   12   21   -0.000047    0.000007
    5    3    0   13   21   -0.000186   -0.000003
    5    3    0   14   21    0.000023   -0.000023
    5    3    0   15   21    0.000465    0.000001
    5    3    0   16   21   -0.000018   -0.000062
    5    3    0   17   21   -0.000935   -0.000031
    5    3    0   18   21   -0.000075   -0.000049
    5    3    0   19   21    0.000080   -0.000024
    5    3    0   20   21   -0.000064   -0.000062
    5    3    0   21   21    0.000125   -0.000036
    5    3    0   22   21   -0.000092   -0.000028
    5    3    0   23   21    0.000646   -0.000018
    5    3    0   24   21    0.000048   -0.000019
    5    3    0   25   21   -0.000090    0.000033
    5    3    0   26   21   -0.000026   -0.000002
    5    3    0   27   21    0.000071    0.000051
    5    3    0   28   21   -0.000004   -0.000033
    5    3    0    1   22   -0.000051    0.000032
    5    3    0    2   22   -0.000511   -0.000025
    5    3    0    3   22    0.000001    0.000008
    5    3    0    4   22   -0.000354    0.000029
    5    3    0    5   22   -0.000047    0.000099
    5    3    0    6   22    0.000156   -0.000049
    5    3    0    7   22    0.000082   -0.000051
    5    3    0    8   22   -0.000991   -0.000047
    5    3    0    9   22   -0.000063   -0.000006
    5    3    0   10   22   -0.000079   -0.000059
    5    3    0   11   22    0.000047    0.000007
    5    3    0   12   22    0.000249    0.000028
    5    3    0   13   22   -0.000023   -0.000023
    5    3    0   14   22   -0.000186    0.000003
    5    3    0   15   22    0.000018   -0.000062
    5    3    0   16   22    0.000465   -0.000001
    5    3    0   17   22    0.000075   -0.000049
    5    3    0   18   22   -0.000935    0.000031
    5    3    0   19   22    0.000064   -0.000062
    5    3    0   20   22    0.000080    0.000024
    5    3    0   21   22    0.000092   -0.000028
    5    3    0   22   22    0.000125    0.000036
    5    3    0   23   22   -0.000048   -0.000019
    5    3    0   24   22    0.000646    0.000018
    5    3    0   25   22    0.000026   -0.000002
    5    3    0   26   22   -0.000090   -0.000033
    5    3    0   27   22    0.000004   -0.000033
    5    3    0   28   22    0.000071   -0.000051
    5    3    0    1   23    0.000019    0.000030
    5    3    0    2   23    0.000015   -0.000028
    5    3    0    3   23    0.000098   -0.000004
    5    3    0    4   23   -0.000006   -0.000065
    5    3    0    5   23   -0.000008    0.000062
    5    3    0    6   23    0.000010   -0.000019
    5    3    0    7   23    0.000026    0.000117
    5    3    0    8   23   -0.000060    0.000065
    5    3    0    9   23   -0.000498   -0.000015
    5    3    0   10   23    0.000009    0.000022
    5    3    0   11   23   -0.000605   -0.000029
    5    3    0   12   23    0.000014   -0.000038
    5    3    0   13   23   -0.001671    0.000027
    5    3    0   14   23    0.000031    0.000035
    5    3    0   15   23    0.000003    0.000038
    5    3    0   16   23    0.000015    0.000012
    5    3    0   17   23   -0.000306   -0.000018
    5    3    0   18   23   -0.000001   -0.000053
    5    3    0   19   23   -0.000015    0.000031
    5    3    0   20   23    0.000050   -0.000017
    5    3    0   21   23    0.000014    0.000020
    5    3    0   22   23    0.000021   -0.000028
    5    3    0   23   23    0.000401   -0.000128
    5    3    0   24   23   -0.000021   -0.000010
    5    3    0   25   23    0.000139    0.000062
    5    3    0   26   23    0.000001    0.000030
    5    3    0   27   23    0.001954   -0.000038
    5    3    0   28   23   -0.000070    0.000045
    5    3    0    1   24   -0.000015   -0.000028
    5    3    0    2   24    0.000019   -0.000030
    5    3    0    3   24    0.000006   -0.000065
    5    3    0    4   24    0.000098    0.000004
    5    3    0    5   24   -0.000010   -0.000019
    5    3    0    6   24   -0.000008   -0.000062
    5    3    0    7   24    0.000060    0.000065
    5    3    0    8   24    0.000026   -0.000117
    5    3    0    9   24   -0.000009    0.000022
    5    3    0   10   24   -0.000498    0.000015
    5    3    0   11   24   -0.000014   -0.000038
    5    3    0   12   24   -0.000605    0.000029
    5    3    0   13   24   -0.000031    0.000035
    5    3    0   14   24   -0.001671   -0.000027
    5    3    0   15   24   -0.000015    0.000012
    5    3    0   16   24    0.000003   -0.000038
    5    3    0   17   24    0.000001   -0.000053
    5    3    0   18   24   -0.000306    0.000018
    5    3    0   19   24   -0.000050   -0.000017
    5    3    0   20   24   -0.000015   -0.000031
    5    3    0   21   24   -0.000021   -0.000028
    5    3    0   22   24    0.000014   -0.000020
    5    3    0   23   24    0.000021   -0.000010
    5    3    0   24   24    0.000401    0.000128
    5    3    0   25   24   -0.000001    0.000030
    5    3    0   26   24    0.000139   -0.000062
    5    3    0   27   24    0.000070    0.000045
    5    3    0   28   24    0.001954    0.000038
    5    3    0    1   25   -0.000012    0.000011
    5    3    0    2   25    0.000105    0.000037
    5    3    0    3   25    0.000717    0.000015
    5    3    0    4   25   -0.000033    0.000069
    5    3    0    5   25   -0.000197   -0.000006
    5    3    0    6   25    0.000065   -0.000113
    5    3    0    7   25   -0.000135    0.000080
    5    3    0    8   25   -0.000019   -0.000014
    5    3    0    9   25   -0.000355   -0.000029
    5    3    0   10   25    0.000045   -0.000074
    5    3    0   11   25    0.000039    0.000045
    5    3    0   12   25    0.000008   -0.000002
    5    3    0   13   25   -0.000435    0.000065
    5    3    0   14   25   -0.000118   -0.000034
    5    3    0   15   25   -0.000052   -0.000015
    5    3    0   16   25    0.000047   -0.000041
    5    3    0   17   25   -0.000036    0.000016
    5    3    0   18   25   -0.000083    0.000024
    5    3    0   19   25    0.000060    0.000029
    5    3    0   20   25   -0.000063   -0.000035
    5    3    0   21   25   -0.000199    0.000057
    5    3    0   22   25   -0.000032    0.000016
    5    3    0   23   25   -0.000558   -0.000082
    5    3    0   24   25    0.000041    0.000040
    5    3    0   25   25   -0.000439   -0.000094
    5    3    0   26   25    0.000051    0.000012
    5    3    0   27   25    0.000482   -0.000119
    5    3    0   28   25    0.000108    0.000037
    5    3    0    1   26   -0.000105    0.000037
    5    3    0    2   26   -0.000012   -0.000011
    5    3    0    3   26    0.000033    0.000069
    5    3    0    4   26    0.000717   -0.000015
    5    3    0    5   26   -0.000065   -0.000113
    5    3    0    6   26   -0.000197    0.000006
    5    3    0    7   26    0.000019   -0.000014
    5    3    0    8   26   -0.000135   -0.000080
    5    3    0    9   26   -0.000045   -0.000074
    5    3    0   10   26   -0.000355    0.000029
    5    3    0   11   26   -0.000008   -0.000002
    5    3    0   12   26    0.000039   -0.000045
    5    3    0   13   26    0.000118   -0.000034
    5    3    0   14   26   -0.000435   -0.000065
    5    3    0   15   26   -0.000047   -0.000041
    5    3    0   16   26   -0.000052    0.000015
    5    3    0   17   26    0.000083    0.000024
    5    3    0   18   26   -0.000036   -0.000016
    5    3    0   19   26    0.000063   -0.000035
    5    3    0   20   26    0.000060   -0.000029
    5    3    0   21   26    0.000032    0.000016
    5    3    0   22   26   -0.000199   -0.000057
    5    3    0   23   26   -0.000041    0.000040
    5    3    0   24   26   -0.000558    0.000082
    5    3    0   25   26   -0.000051    0.000012
    5    3    0   26   26   -0.000439    0.000094
    5    3    0   27   26   -0.000108    0.000037
    5    3    0   28   26    0.000482    0.000119
    5    3    0    1   27    0.000260   -0.000063
    5    3    0    2   27   -0.000035    0.000054
    5    3    0    3   27    0.000599    0.000029
    5    3    0    4   27   -0.000020    0.000020
    5    3    0    5   27   -0.000042   -0.000115
    5    3    0    6   27    0.000057   -0.000070
    5    3    0    7   27    0.003741   -0.000180
    5    3    0    8   27   -0.000038    0.000020
    5    3    0    9   27    0.001458    0.000068
    5    3    0   10   27   -0.000041    0.000008
    5    3    0   11   27   -0.000117    0.000064
    5    3    0   12   27    0.000049    0.000007
    5    3    0   13   27    0.002333   -0.000172
    5    3    0   14   27    0.000017    0.000026
    5    3    0   15   27   -0.001360    0.000024
    5    3    0   16   27   -0.000006    0.000009
    5    3    0   17   27    0.002213   -0.000086
    5    3    0   18   27   -0.000133    0.000109
    5    3    0   19   27   -0.000429    0.000145
    5    3    0   20   27    0.000016    0.000023
    5    3    0   21   27   -0.000739    0.000159
    5    3    0   22   27    0.000026   -0.000095
    5    3    0   23   27   -0.002141    0.000062
    5    3    0   24   27    0.000065    0.000085
    5    3    0   25   27    0.000956   -0.000239
    5    3    0   26   27    0.000184   -0.000060
    5    3    0   27   27   -0.002025    0.000080
    5    3    0   28   27    0.000038    0.000081
    5    3    0    1   28    0.000035    0.000054
    5    3    0    2   28    0.000260    0.000063
    5    3    0    3   28    0.000020    0.000020
    5    3    0    4   28    0.000599   -0.000029
    5    3    0    5   28   -0.000057   -0.000070
    5    3    0    6   28   -0.000042    0.000115
    5    3    0    7   28    0.000038    0.000020
    5    3    0    8   28    0.003741    0.000180
    5    3    0    9   28    0.000041    0.000008
    5    3    0   10   28    0.001458   -0.000068
    5    3    0   11   28   -0.000049    0.000007
    5    3    0   12   28   -0.000117   -0.000064
    5    3    0   13   28   -0.000017    0.000026
    5    3    0   14   28    0.002333    0.000172
    5    3    0   15   28    0.000006    0.000009
    5    3    0   16   28   -0.001360   -0.000024
    5    3    0   17   28    0.000133    0.000109
    5    3    0   18   28    0.002213    0.000086
    5    3    0   19   28   -0.000016    0.000023
    5    3    0   20   28   -0.000429   -0.000145
    5    3    0   21   28   -0.000026   -0.000095
    5    3    0   22   28   -0.000739   -0.000159
    5    3    0   23   28   -0.000065    0.000085
    5    3    0   24   28   -0.002141   -0.000062
    5    3    0   25   28   -0.000184   -0.000060
    5    3    0   26   28    0.000956    0.000239
    5    3    0   27   28   -0.000038    0.000081
    5    3    0   28   28   -0.002025   -0.000080
