 written on 24May2024 at 17:11:43 
           6
         617
    4    3    2    2    2    1    2    2    1    1    2    3    2    2    2
    3    6    2    2    2    1    2    2    1    1    2    2    1    1    1
    2    2    1    1    1    1    2    2    1    1    1    1    1    2    2
    1    1    1    1    1    1    2    6    2    2    2    2    2    2    2
    6    2    2    3    1    1    1    3    2    1    1    1    1    2    2
    1    1    1    1    1    2    2    1    1    1    1    1    1    2    3
    1    1    1    1    1    1    1    3    1    1    1    1    1    1    1
    1    2    1    1    1    1    1    1    1    2    2    1    1    1    1
    1    1    2    3    2    2    2    3    2    1    2    2    1    1    1
    1    2    4    1    1    1    1    1    1    1    4    1    1    1    1
    1    1    1    1    2    1    1    1    1    1    1    1    2    1    1
    1    1    1    1    1    1    2    1    1    1    1    1    1    1    2
    1    1    1    1    1    1    1    1    2    1    1    1    1    1    2
    2    1    1    2    4    3    2    1    1    2    2    1    1    1    1
    1    2    1    1    1    1    1    1    1    1    2    1    1    1    1
    1    1    1    2    1    1    1    1    1    1    1    1    2    1    1
    1    1    1    1    1    2    1    1    1    1    1    1    1    1    3
    1    1    1    1    1    1    1    3    2    1    1    1    1    2    2
    1    2    2    2    2    1    1    1    2    2    1    1    1    1    1
    1    2    2    1    1    1    1    1    1    1    2    1    1    1    1
    1    1    1    1    2    1    1    1    1    1    1    1    2    1    1
    1    1    1    1    1    1    2    1    1    1    1    1    1    1    2
    2    1    1    1    1    1    1    2    2    1    1    1    2    2    2
    2    1    2    2    1    1    1    1    2    3    1    1    1    1    1
    1    1    3    1    1    1    1    1    1    1    1    2    1    1    1
    1    1    1    1    2    1    1    1    1    1    1    1    1    2    1
    1    1    1    1    1    1    2    1    1    1    1    1    1    1    1
    2    1    1    1    1    1    2    2    1    1    2    3    4    2    1
    1    2    2    1    1    1    1    1    2    1    1    1    1    1    1
    1    1    2    1    1    1    1    1    1    1    2    1    1    1    1
    1    1    1    1    2    1    1    1    1    1    1    1    2    1    1
    1    1    1    1    1    1    4    1    1    1    1    1    1    1    4
    2    1    1    1    1    2    2    1    2    3    2    2    2    3    2
    1    1    1    1    1    1    2    2    1    1    1    1    1    1    1
    2    1    1    1    1    1    1    1    1    3    1    1    1    1    1
    1    1    3    2    1    1    1    1    1    1    2    2    1    1    1
    1    1    2    2    1    1    1    1    2    3    1    1    1    3    2
    2    6    2    2    2    2    2    2    2    6    2    1    1    1    1
    1    1    2    2    1    1    1    1    1    2    2    1    1    1    1
    2    2    1    1    1    2    2    1    1    2    2    1    2    2    2
    6    3    2    2    2    3    2    1    1    2    2    1    2    2    2
    3    4
   -6    2    2    1    1    0.041230   -0.000807
   -6    2    2    2    1    0.000089    0.010218
   -6    2    2    3    1   -0.005780    0.000313
   -6    2    2    4    1   -0.006127   -0.001105
   -6    2    2    5    1   -0.003540   -0.003474
   -6    2    2    6    1    0.004840    0.004261
   -6    2    2    1    2    0.000452   -0.008970
   -6    2    2    2    2   -0.009137   -0.000088
   -6    2    2    3    2   -0.001517   -0.000930
   -6    2    2    4    2   -0.002705   -0.001481
   -6    2    2    5    2    0.000162   -0.001328
   -6    2    2    6    2   -0.002353   -0.001899
   -6    2    2    1    3   -0.006411    0.000346
   -6    2    2    2    3   -0.002545    0.000535
   -6    2    2    3    3    0.007276    0.000685
   -6    2    2    4    3   -0.000694    0.008730
   -6    2    2    5    3   -0.002209    0.001445
   -6    2    2    6    3    0.001006    0.000660
   -6    2    2    1    4   -0.000069   -0.000480
   -6    2    2    2    4   -0.002497    0.002535
   -6    2    2    3    4   -0.001272   -0.008909
   -6    2    2    4    4    0.001777    0.003086
   -6    2    2    5    4    0.000808   -0.000975
   -6    2    2    6    4    0.000733   -0.000648
   -6    2    2    1    5   -0.002504    0.005612
   -6    2    2    2    5    0.000242    0.001856
   -6    2    2    3    5   -0.002213    0.001428
   -6    2    2    4    5    0.001315    0.000201
   -6    2    2    5    5   -0.004367    0.000549
   -6    2    2    6    5    0.003198   -0.004619
   -6    2    2    1    6    0.003581   -0.003688
   -6    2    2    2    6   -0.003106   -0.000178
   -6    2    2    3    6    0.000039   -0.002124
   -6    2    2    4    6    0.000937    0.001851
   -6    2    2    5    6    0.000355    0.005297
   -6    2    2    6    6    0.001717   -0.003425
   -5   -1    3    1    1   -0.002451   -0.006105
   -5   -1    3    2    1    0.001925   -0.003924
   -5   -1    3    3    1    0.001440   -0.007419
   -5   -1    3    4    1    0.013495   -0.001737
   -5   -1    3    5    1   -0.003847   -0.000262
   -5   -1    3    6    1    0.004461   -0.005055
   -5   -1    3    1    2    0.002628    0.002208
   -5   -1    3    2    2    0.000447    0.004613
   -5   -1    3    3    2    0.000376    0.000076
   -5   -1    3    4    2    0.002731    0.002729
   -5   -1    3    5    2    0.001111    0.000020
   -5   -1    3    6    2   -0.000422   -0.000543
   -5   -1    3    1    3   -0.003871    0.002740
   -5   -1    3    2    3    0.000554    0.000319
   -5   -1    3    3    3    0.000508   -0.000224
   -5   -1    3    4    3    0.000783    0.001608
   -5   -1    3    5    3    0.006043    0.002870
   -5   -1    3    6    3   -0.005410   -0.004915
   -5   -1    3    1    4    0.010536    0.000376
   -5   -1    3    2    4    0.005849    0.000448
   -5   -1    3    3    4    0.003782   -0.002640
   -5   -1    3    4    4    0.000708    0.000399
   -5   -1    3    5    4    0.000467   -0.003000
   -5   -1    3    6    4    0.001226    0.001201
   -5   -1    3    1    5   -0.006434    0.001194
   -5   -1    3    2    5    0.000988   -0.001125
   -5   -1    3    3    5    0.006276   -0.001786
   -5   -1    3    4    5    0.002342    0.002833
   -5   -1    3    5    5    0.001295    0.000786
   -5   -1    3    6    5   -0.003594   -0.004367
   -5   -1    3    1    6    0.005182    0.006340
   -5   -1    3    2    6   -0.000469    0.004903
   -5   -1    3    3    6   -0.005487    0.004182
   -5   -1    3    4    6   -0.001255    0.000181
   -5   -1    3    5    6    0.001434    0.000854
   -5   -1    3    6    6    0.002998    0.000531
   -5    0    2    1    1    0.006068    0.005550
   -5    0    2    2    1    0.000808   -0.005444
   -5    0    2    3    1   -0.008105   -0.025402
   -5    0    2    4    1    0.014475    0.007600
   -5    0    2    5    1    0.004294   -0.004650
   -5    0    2    6    1    0.000161   -0.022631
   -5    0    2    1    2    0.001785    0.010764
   -5    0    2    2    2    0.001778   -0.004259
   -5    0    2    3    2    0.003552   -0.002105
   -5    0    2    4    2   -0.002667    0.004149
   -5    0    2    5    2    0.000399    0.000300
   -5    0    2    6    2    0.002553   -0.000978
   -5    0    2    1    3   -0.005062    0.024206
   -5    0    2    2    3    0.004816   -0.000941
   -5    0    2    3    3    0.001440    0.001325
   -5    0    2    4    3    0.002270   -0.005584
   -5    0    2    5    3    0.000557   -0.000115
   -5    0    2    6    3    0.006215    0.006596
   -5    0    2    1    4    0.014685   -0.007512
   -5    0    2    2    4   -0.002074   -0.004472
   -5    0    2    3    4    0.000468    0.000827
   -5    0    2    4    4   -0.005000    0.002328
   -5    0    2    5    4   -0.001485   -0.002260
   -5    0    2    6    4   -0.003372   -0.002500
   -5    0    2    1    5    0.003110    0.009828
   -5    0    2    2    5   -0.000296   -0.000695
   -5    0    2    3    5   -0.000437   -0.005016
   -5    0    2    4    5    0.000856    0.002848
   -5    0    2    5    5   -0.000565   -0.000344
   -5    0    2    6    5    0.005524   -0.001462
   -5    0    2    1    6    0.001126    0.024599
   -5    0    2    2    6    0.002847   -0.003894
   -5    0    2    3    6    0.005798   -0.007924
   -5    0    2    4    6   -0.000797   -0.002238
   -5    0    2    5    6    0.006547    0.001518
   -5    0    2    6    6   -0.001346   -0.004601
   -5    0    3    1    1    0.003097    0.007449
   -5    0    3    2    1   -0.005889    0.001331
   -5    0    3    3    1    0.008961    0.019170
   -5    0    3    4    1   -0.021119   -0.000134
   -5    0    3    5    1   -0.005963    0.003656
   -5    0    3    6    1   -0.001469    0.019540
   -5    0    3    1    2   -0.005857    0.000284
   -5    0    3    2    2    0.000013   -0.004889
   -5    0    3    3    2    0.003229   -0.004653
   -5    0    3    4    2   -0.003265    0.000199
   -5    0    3    5    2   -0.000856   -0.000916
   -5    0    3    6    2   -0.000980   -0.005595
   -5    0    3    1    3    0.011044   -0.019914
   -5    0    3    2    3    0.004829    0.002579
   -5    0    3    3    3   -0.007334    0.002163
   -5    0    3    4    3   -0.002668    0.002469
   -5    0    3    5    3    0.005189   -0.000720
   -5    0    3    6    3    0.002066   -0.002810
   -5    0    3    1    4   -0.019665   -0.002499
   -5    0    3    2    4   -0.005444   -0.003870
   -5    0    3    3    4   -0.002451   -0.003477
   -5    0    3    4    4    0.003262    0.000153
   -5    0    3    5    4   -0.000559    0.002318
   -5    0    3    6    4   -0.007339   -0.001898
   -5    0    3    1    5   -0.004087    0.000314
   -5    0    3    2    5   -0.000863    0.002984
   -5    0    3    3    5    0.005583    0.002058
   -5    0    3    4    5   -0.002634   -0.000008
   -5    0    3    5    5    0.001648   -0.000627
   -5    0    3    6    5   -0.002268   -0.002640
   -5    0    3    1    6   -0.000057   -0.018641
   -5    0    3    2    6    0.000499   -0.002917
   -5    0    3    3    6    0.002077    0.001983
   -5    0    3    4    6   -0.005757    0.003096
   -5    0    3    5    6   -0.003157    0.003221
   -5    0    3    6    6    0.004244   -0.004250
   -5    1    1    1    1    0.018922   -0.007153
   -5    1    1    2    1   -0.002487    0.009255
   -5    1    1    3    1    0.006929    0.007872
   -5    1    1    4    1   -0.023268   -0.002317
   -5    1    1    5    1    0.002489   -0.002734
   -5    1    1    6    1   -0.011118    0.002455
   -5    1    1    1    2   -0.006369   -0.015814
   -5    1    1    2    2   -0.006831    0.001583
   -5    1    1    3    2   -0.001781    0.005310
   -5    1    1    4    2   -0.011584   -0.004423
   -5    1    1    5    2    0.000984   -0.000992
   -5    1    1    6    2   -0.004894    0.006197
   -5    1    1    1    3    0.011680   -0.007716
   -5    1    1    2    3   -0.000574   -0.001938
   -5    1    1    3    3   -0.000232    0.004664
   -5    1    1    4    3   -0.002109   -0.003646
   -5    1    1    5    3   -0.003232    0.003755
   -5    1    1    6    3    0.001724   -0.004170
   -5    1    1    1    4   -0.024675    0.007270
   -5    1    1    2    4   -0.011186    0.007797
   -5    1    1    3    4    0.002222    0.000328
   -5    1    1    4    4   -0.014342    0.001451
   -5    1    1    5    4    0.009632    0.002073
   -5    1    1    6    4   -0.001773    0.006265
   -5    1    1    1    5    0.006005    0.001050
   -5    1    1    2    5    0.001584    0.001442
   -5    1    1    3    5   -0.003212   -0.003184
   -5    1    1    4    5    0.008664   -0.002440
   -5    1    1    5    5   -0.002253   -0.000117
   -5    1    1    6    5   -0.000251   -0.006492
   -5    1    1    1    6   -0.002320   -0.010363
   -5    1    1    2    6   -0.003122   -0.004349
   -5    1    1    3    6    0.000971    0.005848
   -5    1    1    4    6   -0.002202   -0.005505
   -5    1    1    5    6    0.003030    0.002195
   -5    1    1    6    6    0.000623   -0.000428
   -5    1    2    1    1   -0.005521   -0.005000
   -5    1    2    2    1   -0.012063    0.003698
   -5    1    2    3    1   -0.001320    0.018520
   -5    1    2    4    1   -0.006558   -0.011358
   -5    1    2    5    1    0.006863    0.003779
   -5    1    2    6    1   -0.007955    0.006856
   -5    1    2    1    2   -0.013885   -0.009017
   -5    1    2    2    2   -0.003981    0.002989
   -5    1    2    3    2    0.001997    0.001672
   -5    1    2    4    2   -0.005930   -0.004588
   -5    1    2    5    2   -0.000391    0.001066
   -5    1    2    6    2    0.006286    0.003445
   -5    1    2    1    3    0.004401   -0.023020
   -5    1    2    2    3    0.002483   -0.002590
   -5    1    2    3    3   -0.006124    0.000064
   -5    1    2    4    3    0.002050   -0.004566
   -5    1    2    5    3   -0.003840   -0.005256
   -5    1    2    6    3    0.000278    0.009781
   -5    1    2    1    4   -0.013373    0.007972
   -5    1    2    2    4   -0.006367    0.005746
   -5    1    2    3    4    0.003386    0.007625
   -5    1    2    4    4   -0.006310   -0.002293
   -5    1    2    5    4   -0.006980    0.003196
   -5    1    2    6    4    0.002293    0.003058
   -5    1    2    1    5    0.007919   -0.000975
   -5    1    2    2    5   -0.000155   -0.002032
   -5    1    2    3    5   -0.001591    0.002237
   -5    1    2    4    5   -0.006117    0.000948
   -5    1    2    5    5    0.003059   -0.001180
   -5    1    2    6    5    0.000662    0.006496
   -5    1    2    1    6   -0.006221   -0.009940
   -5    1    2    2    6    0.004386    0.001796
   -5    1    2    3    6    0.000213   -0.002594
   -5    1    2    4    6   -0.000470   -0.002192
   -5    1    2    5    6    0.000250   -0.006869
   -5    1    2    6    6    0.007387    0.005422
   -5    1    3    1    1   -0.009975   -0.005425
   -5    1    3    2    1   -0.006584    0.001475
   -5    1    3    3    1    0.007988   -0.001055
   -5    1    3    4    1    0.014397   -0.007958
   -5    1    3    5    1   -0.009387   -0.000838
   -5    1    3    6    1   -0.010692   -0.000886
   -5    1    3    1    2   -0.006777   -0.000646
   -5    1    3    2    2   -0.002246    0.004990
   -5    1    3    3    2    0.007871    0.006118
   -5    1    3    4    2   -0.000852   -0.002945
   -5    1    3    5    2    0.000598   -0.000118
   -5    1    3    6    2    0.000345    0.004952
   -5    1    3    1    3    0.005924   -0.001968
   -5    1    3    2    3    0.005504   -0.004179
   -5    1    3    3    3   -0.009388   -0.001115
   -5    1    3    4    3    0.005162    0.001702
   -5    1    3    5    3    0.011729    0.001352
   -5    1    3    6    3   -0.005825   -0.004538
   -5    1    3    1    4    0.006354    0.009604
   -5    1    3    2    4    0.001960    0.006223
   -5    1    3    3    4    0.003903   -0.000922
   -5    1    3    4    4    0.005498   -0.002190
   -5    1    3    5    4    0.000937   -0.003702
   -5    1    3    6    4    0.000427    0.003380
   -5    1    3    1    5   -0.012418   -0.000627
   -5    1    3    2    5    0.000680   -0.001705
   -5    1    3    3    5    0.009973   -0.003340
   -5    1    3    4    5    0.000892    0.001667
   -5    1    3    5    5    0.001034    0.000804
   -5    1    3    6    5   -0.000974   -0.009227
   -5    1    3    1    6   -0.007873    0.002195
   -5    1    3    2    6   -0.002310    0.002245
   -5    1    3    3    6   -0.002543    0.003721
   -5    1    3    4    6   -0.002783   -0.002502
   -5    1    3    5    6   -0.000663    0.006268
   -5    1    3    6    6    0.009548    0.002937
   -5    2    0    1    1   -0.006456    0.002763
   -5    2    0    2    1   -0.006700    0.005325
   -5    2    0    3    1   -0.016508   -0.020805
   -5    2    0    4    1    0.001395   -0.006312
   -5    2    0    5    1    0.004322   -0.001489
   -5    2    0    6    1    0.009730   -0.013387
   -5    2    0    1    2   -0.008757   -0.004319
   -5    2    0    2    2    0.002333    0.002357
   -5    2    0    3    2   -0.002701    0.002424
   -5    2    0    4    2   -0.003413    0.002596
   -5    2    0    5    2   -0.000631   -0.000815
   -5    2    0    6    2    0.004302    0.002179
   -5    2    0    1    3   -0.015088    0.014177
   -5    2    0    2    3   -0.002096    0.001710
   -5    2    0    3    3    0.011266   -0.005437
   -5    2    0    4    3   -0.000906    0.006602
   -5    2    0    5    3    0.002099   -0.001198
   -5    2    0    6    3    0.003967   -0.006776
   -5    2    0    1    4   -0.004394    0.003622
   -5    2    0    2    4   -0.001455   -0.003308
   -5    2    0    3    4    0.002668    0.000896
   -5    2    0    4    4   -0.012601    0.001034
   -5    2    0    5    4    0.004691   -0.003634
   -5    2    0    6    4    0.003971    0.001694
   -5    2    0    1    5    0.008631   -0.001932
   -5    2    0    2    5    0.000791    0.000457
   -5    2    0    3    5   -0.000139   -0.004056
   -5    2    0    4    5    0.005691    0.002129
   -5    2    0    5    5   -0.000408   -0.001825
   -5    2    0    6    5   -0.004850   -0.003303
   -5    2    0    1    6    0.009702    0.011546
   -5    2    0    2    6    0.001589    0.003870
   -5    2    0    3    6    0.003156    0.004175
   -5    2    0    4    6    0.001417   -0.000577
   -5    2    0    5    6   -0.005190    0.002470
   -5    2    0    6    6    0.007096    0.001109
   -5    2    1    1    1   -0.028001   -0.003758
   -5    2    1    2    1   -0.001539   -0.010966
   -5    2    1    3    1    0.009297    0.003596
   -5    2    1    4    1    0.000592    0.014489
   -5    2    1    5    1    0.007193    0.008333
   -5    2    1    6    1    0.001266    0.018246
   -5    2    1    1    2    0.005058    0.010021
   -5    2    1    2    2    0.008842   -0.000560
   -5    2    1    3    2    0.000340   -0.000573
   -5    2    1    4    2    0.011360   -0.000157
   -5    2    1    5    2   -0.002383    0.000956
   -5    2    1    6    2    0.005165   -0.001966
   -5    2    1    1    3    0.010724    0.000089
   -5    2    1    2    3   -0.002166    0.004288
   -5    2    1    3    3   -0.001487    0.005241
   -5    2    1    4    3    0.004988   -0.000544
   -5    2    1    5    3   -0.002539   -0.000765
   -5    2    1    6    3   -0.007872    0.000809
   -5    2    1    1    4   -0.003664   -0.016636
   -5    2    1    2    4    0.011383   -0.007315
   -5    2    1    3    4    0.004671   -0.000520
   -5    2    1    4    4    0.002198   -0.006295
   -5    2    1    5    4   -0.001039    0.003048
   -5    2    1    6    4    0.011865   -0.005901
   -5    2    1    1    5    0.003972   -0.003568
   -5    2    1    2    5   -0.002832    0.000007
   -5    2    1    3    5   -0.002923    0.003372
   -5    2    1    4    5    0.001851    0.001501
   -5    2    1    5    5    0.001421    0.001762
   -5    2    1    6    5   -0.010017    0.001470
   -5    2    1    1    6    0.001730   -0.014980
   -5    2    1    2    6    0.005926    0.001563
   -5    2    1    3    6   -0.010148    0.002048
   -5    2    1    4    6    0.007986    0.005036
   -5    2    1    5    6   -0.011327   -0.002429
   -5    2    1    6    6    0.002315    0.003610
   -5    2    2    1    1   -0.009400    0.007454
   -5    2    2    2    1    0.010575    0.002814
   -5    2    2    3    1   -0.000723   -0.017897
   -5    2    2    4    1    0.004207    0.008795
   -5    2    2    5    1   -0.005398   -0.008369
   -5    2    2    6    1    0.007495   -0.014851
   -5    2    2    1    2    0.013623    0.002341
   -5    2    2    2    2    0.006236   -0.003089
   -5    2    2    3    2   -0.003648   -0.001821
   -5    2    2    4    2    0.003297    0.002429
   -5    2    2    5    2    0.001789    0.001201
   -5    2    2    6    2    0.001933    0.001820
   -5    2    2    1    3    0.004024    0.024276
   -5    2    2    2    3   -0.002897    0.004556
   -5    2    2    3    3   -0.007399   -0.002580
   -5    2    2    4    3    0.002709    0.002051
   -5    2    2    5    3    0.000628    0.001958
   -5    2    2    6    3   -0.003377   -0.001631
   -5    2    2    1    4    0.004693   -0.011738
   -5    2    2    2    4    0.003062   -0.006551
   -5    2    2    3    4    0.003738   -0.001878
   -5    2    2    4    4    0.008325    0.001314
   -5    2    2    5    4   -0.003495   -0.000832
   -5    2    2    6    4    0.003383    0.003939
   -5    2    2    1    5   -0.007824    0.003079
   -5    2    2    2    5    0.000939   -0.001076
   -5    2    2    3    5   -0.001854   -0.003668
   -5    2    2    4    5   -0.003550   -0.000120
   -5    2    2    5    5   -0.000976   -0.000653
   -5    2    2    6    5    0.007040   -0.001754
   -5    2    2    1    6    0.011197    0.014755
   -5    2    2    2    6    0.004788   -0.003967
   -5    2    2    3    6   -0.001254    0.001630
   -5    2    2    4    6    0.002827   -0.003823
   -5    2    2    5    6    0.009336   -0.000311
   -5    2    2    6    6   -0.008294   -0.002446
   -5    2    3    1    1    0.001124    0.009276
   -5    2    3    2    1    0.001578    0.000034
   -5    2    3    3    1    0.012655   -0.018484
   -5    2    3    4    1    0.001153    0.010299
   -5    2    3    5    1   -0.010204    0.002982
   -5    2    3    6    1    0.017666    0.012517
   -5    2    3    1    2   -0.000606   -0.000102
   -5    2    3    2    2    0.002153   -0.005276
   -5    2    3    3    2    0.002731   -0.003562
   -5    2    3    4    2    0.003867   -0.000099
   -5    2    3    5    2   -0.000479   -0.001314
   -5    2    3    6    2   -0.000179   -0.006360
   -5    2    3    1    3    0.008727    0.016363
   -5    2    3    2    3    0.002516    0.002896
   -5    2    3    3    3   -0.006701   -0.001144
   -5    2    3    4    3   -0.002895    0.003940
   -5    2    3    5    3    0.005730   -0.004080
   -5    2    3    6    3    0.004177   -0.004374
   -5    2    3    1    4    0.003054   -0.010901
   -5    2    3    2    4    0.000816   -0.003383
   -5    2    3    3    4   -0.004934   -0.001804
   -5    2    3    4    4    0.002375   -0.000046
   -5    2    3    5    4   -0.000792   -0.000845
   -5    2    3    6    4   -0.009169   -0.000836
   -5    2    3    1    5   -0.007352    0.002931
   -5    2    3    2    5   -0.000306    0.001947
   -5    2    3    3    5    0.007504    0.002201
   -5    2    3    4    5   -0.000730    0.001425
   -5    2    3    5    5    0.001146   -0.000065
   -5    2    3    6    5    0.007540   -0.001153
   -5    2    3    1    6    0.018799   -0.010078
   -5    2    3    2    6    0.001160    0.001712
   -5    2    3    3    6    0.002763    0.002360
   -5    2    3    4    6   -0.005385    0.002700
   -5    2    3    5    6    0.004027    0.005942
   -5    2    3    6    6    0.004832   -0.002744
   -5    3   -1    1    1   -0.002980    0.003258
   -5    3   -1    2    1    0.001958   -0.004185
   -5    3   -1    3    1    0.008696    0.001451
   -5    3   -1    4    1    0.019199    0.004050
   -5    3   -1    5    1    0.001969    0.001506
   -5    3   -1    6    1   -0.019770   -0.002140
   -5    3   -1    1    2   -0.000886    0.008295
   -5    3   -1    2    2    0.001329   -0.003785
   -5    3   -1    3    2    0.001549    0.003320
   -5    3   -1    4    2    0.005736   -0.004934
   -5    3   -1    5    2   -0.000553    0.001809
   -5    3   -1    6    2   -0.002662    0.000056
   -5    3   -1    1    3    0.005541   -0.001282
   -5    3   -1    2    3   -0.002131   -0.001707
   -5    3   -1    3    3   -0.002070   -0.000967
   -5    3   -1    4    3    0.003462   -0.002920
   -5    3   -1    5    3   -0.001420    0.002319
   -5    3   -1    6    3   -0.001802    0.002768
   -5    3   -1    1    4    0.022183    0.000319
   -5    3   -1    2    4    0.001477    0.002399
   -5    3   -1    3    4   -0.000655    0.002964
   -5    3   -1    4    4    0.003947   -0.001091
   -5    3   -1    5    4    0.001591    0.002425
   -5    3   -1    6    4    0.004608   -0.006273
   -5    3   -1    1    5   -0.000321   -0.002783
   -5    3   -1    2    5   -0.000296    0.000021
   -5    3   -1    3    5   -0.003516   -0.001662
   -5    3   -1    4    5    0.002930   -0.002615
   -5    3   -1    5    5    0.000216    0.000266
   -5    3   -1    6    5   -0.001956   -0.001609
   -5    3   -1    1    6   -0.024770    0.003102
   -5    3   -1    2    6    0.000182    0.000115
   -5    3   -1    3    6    0.001072   -0.001749
   -5    3   -1    4    6    0.004582    0.006772
   -5    3   -1    5    6   -0.004259    0.001985
   -5    3   -1    6    6    0.001532    0.002320
   -5    3    0    1    1   -0.001045    0.007911
   -5    3    0    2    1    0.008276   -0.000869
   -5    3    0    3    1   -0.011106    0.017920
   -5    3    0    4    1   -0.012013   -0.015726
   -5    3    0    5    1   -0.000612   -0.001169
   -5    3    0    6    1   -0.000213   -0.002675
   -5    3    0    1    2    0.011251   -0.003784
   -5    3    0    2    2   -0.004036   -0.001970
   -5    3    0    3    2   -0.000103    0.000357
   -5    3    0    4    2    0.004935   -0.004082
   -5    3    0    5    2    0.001113   -0.001298
   -5    3    0    6    2   -0.007130    0.000584
   -5    3    0    1    3   -0.017331   -0.016707
   -5    3    0    2    3    0.001220   -0.003629
   -5    3    0    3    3    0.009814   -0.004181
   -5    3    0    4    3   -0.006160   -0.001488
   -5    3    0    5    3   -0.000340    0.000642
   -5    3    0    6    3    0.004920   -0.000979
   -5    3    0    1    4   -0.008521    0.012535
   -5    3    0    2    4    0.003011   -0.000234
   -5    3    0    3    4   -0.003788    0.002114
   -5    3    0    4    4    0.007017   -0.003083
   -5    3    0    5    4    0.000265    0.003188
   -5    3    0    6    4    0.000632    0.002203
   -5    3    0    1    5   -0.004644    0.008357
   -5    3    0    2    5    0.000027    0.000858
   -5    3    0    3    5   -0.001375   -0.002657
   -5    3    0    4    5    0.000714    0.002481
   -5    3    0    5    5    0.000922    0.000304
   -5    3    0    6    5    0.001775    0.002159
   -5    3    0    1    6    0.000856    0.000658
   -5    3    0    2    6   -0.007358    0.000072
   -5    3    0    3    6    0.002447    0.001376
   -5    3    0    4    6    0.002006   -0.003521
   -5    3    0    5    6    0.001087   -0.001556
   -5    3    0    6    6   -0.011446    0.001018
   -5    3    1    1    1    0.019813    0.002599
   -5    3    1    2    1    0.009683    0.008262
   -5    3    1    3    1    0.006698   -0.008769
   -5    3    1    4    1    0.012514    0.010085
   -5    3    1    5    1   -0.004715   -0.012254
   -5    3    1    6    1    0.026509   -0.005807
   -5    3    1    1    2    0.006742   -0.008701
   -5    3    1    2    2   -0.007093    0.000949
   -5    3    1    3    2   -0.004343    0.004402
   -5    3    1    4    2   -0.003200   -0.003445
   -5    3    1    5    2    0.000128   -0.001679
   -5    3    1    6    2   -0.013488    0.003815
   -5    3    1    1    3    0.011153    0.007396
   -5    3    1    2    3   -0.002015   -0.005454
   -5    3    1    3    3    0.002010   -0.000370
   -5    3    1    4    3   -0.003424   -0.000526
   -5    3    1    5    3   -0.002775   -0.002733
   -5    3    1    6    3   -0.000509   -0.003208
   -5    3    1    1    4    0.009602   -0.005397
   -5    3    1    2    4   -0.004410    0.008317
   -5    3    1    3    4   -0.002983    0.008120
   -5    3    1    4    4   -0.000778   -0.001024
   -5    3    1    5    4    0.003468   -0.002909
   -5    3    1    6    4   -0.005939    0.008701
   -5    3    1    1    5   -0.000487    0.005019
   -5    3    1    2    5    0.000710    0.001788
   -5    3    1    3    5   -0.001365   -0.001365
   -5    3    1    4    5    0.001637    0.001521
   -5    3    1    5    5   -0.002259   -0.001116
   -5    3    1    6    5    0.002020   -0.006071
   -5    3    1    1    6    0.030264    0.003514
   -5    3    1    2    6   -0.012681    0.000655
   -5    3    1    3    6   -0.004050   -0.001817
   -5    3    1    4    6   -0.000491   -0.004080
   -5    3    1    5    6    0.004175    0.004410
   -5    3    1    6    6   -0.015764   -0.001038
   -5    3    2    1    1    0.013212   -0.002696
   -5    3    2    2    1    0.003785   -0.002207
   -5    3    2    3    1   -0.008046    0.024431
   -5    3    2    4    1   -0.001213   -0.018354
   -5    3    2    5    1    0.002650    0.011523
   -5    3    2    6    1   -0.011032    0.002680
   -5    3    2    1    2    0.001942   -0.005085
   -5    3    2    2    2   -0.002565    0.003701
   -5    3    2    3    2   -0.003738    0.001265
   -5    3    2    4    2   -0.002709   -0.004206
   -5    3    2    5    2   -0.000784    0.000535
   -5    3    2    6    2   -0.002379    0.004179
   -5    3    2    1    3   -0.004745   -0.025444
   -5    3    2    2    3   -0.001133   -0.000866
   -5    3    2    3    3    0.001324   -0.001891
   -5    3    2    4    3   -0.000952    0.004513
   -5    3    2    5    3    0.001331    0.002274
   -5    3    2    6    3   -0.003582   -0.000385
   -5    3    2    1    4   -0.004672    0.018218
   -5    3    2    2    4   -0.002745    0.006400
   -5    3    2    3    4   -0.001709   -0.001014
   -5    3    2    4    4   -0.000924   -0.002304
   -5    3    2    5    4   -0.003516    0.000294
   -5    3    2    6    4   -0.001817   -0.000965
   -5    3    2    1    5    0.005872   -0.009326
   -5    3    2    2    5    0.000356   -0.000803
   -5    3    2    3    5    0.002150    0.003474
   -5    3    2    4    5   -0.004163   -0.000874
   -5    3    2    5    5   -0.001333    0.001222
   -5    3    2    6    5    0.000213    0.008583
   -5    3    2    1    6   -0.011609   -0.003427
   -5    3    2    2    6   -0.002012    0.000009
   -5    3    2    3    6   -0.005314   -0.001287
   -5    3    2    4    6   -0.000243    0.001564
   -5    3    2    5    6    0.000636   -0.007006
   -5    3    2    6    6   -0.007364    0.001968
   -5    3    3    1    1   -0.003214   -0.002167
   -5    3    3    2    1   -0.007215    0.000055
   -5    3    3    3    1   -0.002298    0.006836
   -5    3    3    4    1   -0.004624   -0.013928
   -5    3    3    5    1   -0.002149    0.003433
   -5    3    3    6    1   -0.017504    0.002464
   -5    3    3    1    2   -0.004075    0.000447
   -5    3    3    2    2   -0.002024    0.004583
   -5    3    3    3    2    0.003358    0.002434
   -5    3    3    4    2   -0.002884    0.001961
   -5    3    3    5    2    0.000715    0.000454
   -5    3    3    6    2    0.002200    0.002696
   -5    3    3    1    3    0.001394   -0.004292
   -5    3    3    2    3    0.003828   -0.004425
   -5    3    3    3    3    0.001148   -0.002925
   -5    3    3    4    3   -0.000382    0.002496
   -5    3    3    5    3    0.005169   -0.001468
   -5    3    3    6    3    0.003018   -0.005360
   -5    3    3    1    4   -0.000114    0.014139
   -5    3    3    2    4    0.000611    0.000684
   -5    3    3    3    4    0.003648   -0.002536
   -5    3    3    4    4    0.001470    0.000680
   -5    3    3    5    4   -0.001276   -0.002156
   -5    3    3    6    4    0.000161    0.000849
   -5    3    3    1    5   -0.001686   -0.004217
   -5    3    3    2    5    0.000995   -0.001459
   -5    3    3    3    5    0.003605    0.000700
   -5    3    3    4    5   -0.000377   -0.001743
   -5    3    3    5    5    0.001818   -0.000660
   -5    3    3    6    5   -0.002743   -0.001867
   -5    3    3    1    6   -0.013368   -0.003485
   -5    3    3    2    6   -0.000557    0.001810
   -5    3    3    3    6    0.000016    0.002936
   -5    3    3    4    6   -0.001590   -0.001189
   -5    3    3    5    6   -0.000106    0.000497
   -5    3    3    6    6    0.004307    0.000489
   -4   -4    4    1    1    0.009107   -0.000000
   -4   -4    4    2    1    0.001242    0.001080
   -4   -4    4    3    1   -0.001696   -0.000437
   -4   -4    4    4    1   -0.005579    0.000756
   -4   -4    4    5    1    0.003760   -0.001047
   -4   -4    4    6    1    0.007888    0.000948
   -4   -4    4    1    2    0.001242   -0.001080
   -4   -4    4    2    2   -0.002590   -0.000000
   -4   -4    4    3    2    0.000351   -0.001987
   -4   -4    4    4    2   -0.003535    0.002649
   -4   -4    4    5    2   -0.000047   -0.000128
   -4   -4    4    6    2   -0.000341   -0.001745
   -4   -4    4    1    3   -0.001696    0.000437
   -4   -4    4    2    3    0.000351    0.001987
   -4   -4    4    3    3    0.000930   -0.000000
   -4   -4    4    4    3   -0.001739    0.005149
   -4   -4    4    5    3    0.000847   -0.001301
   -4   -4    4    6    3    0.001682    0.000067
   -4   -4    4    1    4   -0.005579   -0.000756
   -4   -4    4    2    4   -0.003535   -0.002649
   -4   -4    4    3    4   -0.001739   -0.005149
   -4   -4    4    4    4   -0.000537   -0.000000
   -4   -4    4    5    4   -0.000079   -0.000708
   -4   -4    4    6    4   -0.001941   -0.000061
   -4   -4    4    1    5    0.003760    0.001047
   -4   -4    4    2    5   -0.000047    0.000128
   -4   -4    4    3    5    0.000847    0.001301
   -4   -4    4    4    5   -0.000079    0.000708
   -4   -4    4    5    5   -0.003721   -0.000000
   -4   -4    4    6    5    0.001657   -0.000557
   -4   -4    4    1    6    0.007888   -0.000948
   -4   -4    4    2    6   -0.000341    0.001745
   -4   -4    4    3    6    0.001682   -0.000067
   -4   -4    4    4    6   -0.001941    0.000061
   -4   -4    4    5    6    0.001657    0.000557
   -4   -4    4    6    6   -0.000200   -0.000000
   -4   -3    3    1    1    0.000389    0.001506
   -4   -3    3    2    1    0.004752    0.001720
   -4   -3    3    3    1    0.004828    0.009832
   -4   -3    3    4    1   -0.005836    0.001203
   -4   -3    3    5    1   -0.003893    0.000637
   -4   -3    3    6    1   -0.002420    0.002041
   -4   -3    3    1    2    0.000629   -0.002618
   -4   -3    3    2    2    0.000183   -0.001882
   -4   -3    3    3    2   -0.000050   -0.002020
   -4   -3    3    4    2    0.001667   -0.003130
   -4   -3    3    5    2    0.001728   -0.000785
   -4   -3    3    6    2   -0.000208    0.000119
   -4   -3    3    1    3    0.004617   -0.008451
   -4   -3    3    2    3   -0.000415   -0.001033
   -4   -3    3    3    3   -0.002740   -0.000448
   -4   -3    3    4    3    0.001547   -0.001628
   -4   -3    3    5    3   -0.002480    0.000582
   -4   -3    3    6    3   -0.002453   -0.000639
   -4   -3    3    1    4   -0.003125   -0.000491
   -4   -3    3    2    4   -0.001193    0.002875
   -4   -3    3    3    4   -0.000545    0.002490
   -4   -3    3    4    4    0.002056   -0.001120
   -4   -3    3    5    4    0.000727    0.000498
   -4   -3    3    6    4    0.000632   -0.000801
   -4   -3    3    1    5   -0.005498   -0.001109
   -4   -3    3    2    5    0.002023   -0.000209
   -4   -3    3    3    5   -0.000137   -0.001947
   -4   -3    3    4    5    0.000086   -0.001711
   -4   -3    3    5    5   -0.000016    0.000256
   -4   -3    3    6    5   -0.001219   -0.000020
   -4   -3    3    1    6   -0.005282   -0.002579
   -4   -3    3    2    6   -0.002732   -0.000850
   -4   -3    3    3    6    0.000478   -0.000791
   -4   -3    3    4    6   -0.000650    0.001613
   -4   -3    3    5    6    0.000582   -0.002248
   -4   -3    3    6    6   -0.001941    0.001688
   -4   -3    4    1    1   -0.004948   -0.000695
   -4   -3    4    2    1    0.002737   -0.003613
   -4   -3    4    3    1   -0.008287   -0.004421
   -4   -3    4    4    1    0.008280   -0.006763
   -4   -3    4    5    1   -0.000186    0.001721
   -4   -3    4    6    1   -0.004171   -0.005265
   -4   -3    4    1    2    0.000452    0.003123
   -4   -3    4    2    2   -0.000148    0.000222
   -4   -3    4    3    2    0.000833    0.001177
   -4   -3    4    4    2    0.002763   -0.000403
   -4   -3    4    5    2   -0.000812    0.000689
   -4   -3    4    6    2    0.000866   -0.000348
   -4   -3    4    1    3   -0.005234    0.001400
   -4   -3    4    2    3    0.000666   -0.002087
   -4   -3    4    3    3    0.002837    0.001047
   -4   -3    4    4    3    0.002400   -0.000157
   -4   -3    4    5    3    0.004766    0.000680
   -4   -3    4    6    3   -0.001466   -0.004226
   -4   -3    4    1    4    0.002213    0.004913
   -4   -3    4    2    4    0.002949    0.001273
   -4   -3    4    3    4    0.001538   -0.000562
   -4   -3    4    4    4   -0.001064    0.000571
   -4   -3    4    5    4   -0.000204   -0.001956
   -4   -3    4    6    4    0.004433    0.001004
   -4   -3    4    1    5    0.001701   -0.002178
   -4   -3    4    2    5   -0.001206   -0.000388
   -4   -3    4    3    5    0.004014    0.000057
   -4   -3    4    4    5   -0.000038    0.002373
   -4   -3    4    5    5    0.001509   -0.000213
   -4   -3    4    6    5   -0.001325   -0.002298
   -4   -3    4    1    6   -0.005191    0.004117
   -4   -3    4    2    6    0.000179   -0.000401
   -4   -3    4    3    6   -0.001145    0.004629
   -4   -3    4    4    6    0.002821   -0.000576
   -4   -3    4    5    6   -0.001318    0.002231
   -4   -3    4    6    6   -0.000092   -0.000932
   -4   -2    2    1    1   -0.003404   -0.007379
   -4   -2    2    2    1   -0.000512   -0.009457
   -4   -2    2    3    1   -0.012690   -0.026092
   -4   -2    2    4    1    0.023918    0.003885
   -4   -2    2    5    1   -0.001667    0.000475
   -4   -2    2    6    1    0.004048   -0.022711
   -4   -2    2    1    2    0.004343    0.004593
   -4   -2    2    2    2    0.001511    0.003247
   -4   -2    2    3    2   -0.000131    0.002496
   -4   -2    2    4    2    0.002603    0.000591
   -4   -2    2    5    2    0.000143    0.000449
   -4   -2    2    6    2    0.004169   -0.001954
   -4   -2    2    1    3   -0.012530    0.025581
   -4   -2    2    2    3   -0.002390    0.000481
   -4   -2    2    3    3    0.003790    0.001090
   -4   -2    2    4    3    0.001522   -0.000800
   -4   -2    2    5    3   -0.001645    0.001362
   -4   -2    2    6    3    0.003797   -0.000209
   -4   -2    2    1    4    0.021877   -0.004583
   -4   -2    2    2    4    0.007590   -0.000076
   -4   -2    2    3    4   -0.001562   -0.001523
   -4   -2    2    4    4    0.002960    0.000810
   -4   -2    2    5    4   -0.000616   -0.000228
   -4   -2    2    6    4    0.007498   -0.003562
   -4   -2    2    1    5   -0.004050    0.000174
   -4   -2    2    2    5   -0.000129   -0.000845
   -4   -2    2    3    5    0.000598    0.002946
   -4   -2    2    4    5   -0.001061   -0.000201
   -4   -2    2    5    5   -0.000823    0.001770
   -4   -2    2    6    5   -0.001367    0.000853
   -4   -2    2    1    6    0.005607    0.022737
   -4   -2    2    2    6    0.000227    0.002072
   -4   -2    2    3    6    0.001717    0.004231
   -4   -2    2    4    6    0.003073    0.003105
   -4   -2    2    5    6   -0.002738    0.000606
   -4   -2    2    6    6    0.001351    0.000462
   -4   -2    3    1    1   -0.005700    0.000897
   -4   -2    3    2    1    0.001728   -0.004101
   -4   -2    3    3    1   -0.001906    0.007099
   -4   -2    3    4    1    0.001056    0.006692
   -4   -2    3    5    1    0.002512    0.001814
   -4   -2    3    6    1   -0.002441   -0.000717
   -4   -2    3    1    2    0.001456    0.004026
   -4   -2    3    2    2    0.001984    0.001583
   -4   -2    3    3    2    0.000332   -0.001583
   -4   -2    3    4    2   -0.000508    0.001007
   -4   -2    3    5    2    0.000198    0.000281
   -4   -2    3    6    2    0.000783   -0.000957
   -4   -2    3    1    3    0.005854   -0.000970
   -4   -2    3    2    3   -0.000615    0.002739
   -4   -2    3    3    3   -0.002194   -0.000620
   -4   -2    3    4    3   -0.002386   -0.000962
   -4   -2    3    5    3   -0.001053   -0.001461
   -4   -2    3    6    3    0.000373    0.003786
   -4   -2    3    1    4    0.000306   -0.007358
   -4   -2    3    2    4    0.003851   -0.000717
   -4   -2    3    3    4   -0.001496   -0.000807
   -4   -2    3    4    4    0.002648    0.001919
   -4   -2    3    5    4    0.000264    0.002233
   -4   -2    3    6    4   -0.002059    0.000228
   -4   -2    3    1    5    0.004217   -0.003765
   -4   -2    3    2    5   -0.000062    0.000140
   -4   -2    3    3    5   -0.001540   -0.001559
   -4   -2    3    4    5    0.000036   -0.002100
   -4   -2    3    5    5    0.000265   -0.001269
   -4   -2    3    6    5    0.002461    0.001117
   -4   -2    3    1    6    0.002331    0.001382
   -4   -2    3    2    6    0.002070    0.001091
   -4   -2    3    3    6    0.002955   -0.002687
   -4   -2    3    4    6    0.000139   -0.001998
   -4   -2    3    5    6    0.000128    0.001337
   -4   -2    3    6    6    0.003886   -0.002511
   -4   -2    4    1    1    0.005317   -0.001349
   -4   -2    4    2    1   -0.001558    0.006303
   -4   -2    4    3    1    0.001116   -0.000423
   -4   -2    4    4    1   -0.006458    0.002182
   -4   -2    4    5    1    0.000394   -0.002714
   -4   -2    4    6    1    0.006216    0.008319
   -4   -2    4    1    2   -0.002069   -0.006480
   -4   -2    4    2    2    0.002548   -0.000427
   -4   -2    4    3    2    0.001651   -0.001035
   -4   -2    4    4    2   -0.001297    0.006041
   -4   -2    4    5    2   -0.000490   -0.001183
   -4   -2    4    6    2   -0.000581   -0.005266
   -4   -2    4    1    3   -0.006200   -0.001628
   -4   -2    4    2    3    0.000161    0.002621
   -4   -2    4    3    3   -0.000150    0.001985
   -4   -2    4    4    3   -0.002185    0.002989
   -4   -2    4    5    3    0.001654   -0.001127
   -4   -2    4    6    3    0.000160   -0.001706
   -4   -2    4    1    4   -0.003673   -0.000862
   -4   -2    4    2    4   -0.001541   -0.006240
   -4   -2    4    3    4   -0.002114   -0.004141
   -4   -2    4    4    4   -0.000556   -0.001026
   -4   -2    4    5    4    0.000353    0.000474
   -4   -2    4    6    4   -0.006690   -0.002615
   -4   -2    4    1    5   -0.003099    0.003742
   -4   -2    4    2    5   -0.000813    0.000730
   -4   -2    4    3    5    0.003122    0.001438
   -4   -2    4    4    5   -0.000824    0.000644
   -4   -2    4    5    5    0.001402    0.000528
   -4   -2    4    6    5    0.000188   -0.000328
   -4   -2    4    1    6    0.002000   -0.005426
   -4   -2    4    2    6    0.000478    0.004260
   -4   -2    4    3    6    0.002757    0.001816
   -4   -2    4    4    6   -0.006906    0.002090
   -4   -2    4    5    6    0.002717   -0.001882
   -4   -2    4    6    6    0.000628    0.000289
   -4   -1    1    1    1    0.000964    0.007670
   -4   -1    1    2    1    0.002124    0.009244
   -4   -1    1    3    1    0.014277    0.021878
   -4   -1    1    4    1   -0.010222   -0.003549
   -4   -1    1    5    1    0.000588    0.002078
   -4   -1    1    6    1   -0.006626    0.021308
   -4   -1    1    1    2    0.000818   -0.012205
   -4   -1    1    2    2    0.000892   -0.004259
   -4   -1    1    3    2    0.001216    0.004094
   -4   -1    1    4    2    0.000539   -0.002981
   -4   -1    1    5    2   -0.000589    0.001531
   -4   -1    1    6    2   -0.001181    0.002994
   -4   -1    1    1    3    0.011609   -0.018714
   -4   -1    1    2    3    0.000279   -0.006178
   -4   -1    1    3    3   -0.002042   -0.005581
   -4   -1    1    4    3    0.004282   -0.001140
   -4   -1    1    5    3   -0.000419    0.006785
   -4   -1    1    6    3   -0.011686   -0.007334
   -4   -1    1    1    4   -0.002684    0.002278
   -4   -1    1    2    4   -0.002249   -0.005109
   -4   -1    1    3    4    0.004943    0.002484
   -4   -1    1    4    4   -0.004191   -0.000429
   -4   -1    1    5    4    0.003719   -0.001057
   -4   -1    1    6    4   -0.000703    0.003900
   -4   -1    1    1    5   -0.003048    0.000357
   -4   -1    1    2    5   -0.000794   -0.000171
   -4   -1    1    3    5    0.000445   -0.006956
   -4   -1    1    4    5    0.003104   -0.000704
   -4   -1    1    5    5    0.000627    0.000581
   -4   -1    1    6    5   -0.002063   -0.008575
   -4   -1    1    1    6   -0.012345   -0.022282
   -4   -1    1    2    6   -0.002557   -0.003458
   -4   -1    1    3    6   -0.007391    0.003176
   -4   -1    1    4    6    0.000599   -0.006600
   -4   -1    1    5    6   -0.000151    0.011321
   -4   -1    1    6    6    0.001818    0.002018
   -4   -1    2    1    1    0.009600    0.002684
   -4   -1    2    2    1   -0.003264    0.006888
   -4   -1    2    3    1    0.004101    0.015324
   -4   -1    2    4    1   -0.023384   -0.010465
   -4   -1    2    5    1    0.001722    0.001412
   -4   -1    2    6    1   -0.001948    0.005044
   -4   -1    2    1    2   -0.010505   -0.007482
   -4   -1    2    2    2   -0.001947   -0.004747
   -4   -1    2    3    2   -0.002038    0.005988
   -4   -1    2    4    2   -0.004497   -0.001745
   -4   -1    2    5    2   -0.001084   -0.000950
   -4   -1    2    6    2   -0.002221    0.006088
   -4   -1    2    1    3    0.004529   -0.014603
   -4   -1    2    2    3   -0.001630   -0.003991
   -4   -1    2    3    3    0.003370    0.001843
   -4   -1    2    4    3   -0.000616    0.000761
   -4   -1    2    5    3   -0.002673   -0.006220
   -4   -1    2    6    3   -0.001059   -0.000056
   -4   -1    2    1    4   -0.021739    0.013984
   -4   -1    2    2    4   -0.007577   -0.000706
   -4   -1    2    3    4   -0.002900    0.000139
   -4   -1    2    4    4   -0.007382   -0.000479
   -4   -1    2    5    4    0.001410   -0.002595
   -4   -1    2    6    4   -0.004268    0.001734
   -4   -1    2    1    5    0.003693   -0.001760
   -4   -1    2    2    5   -0.000543    0.001416
   -4   -1    2    3    5   -0.001499    0.009763
   -4   -1    2    4    5   -0.002231    0.000716
   -4   -1    2    5    5   -0.000604    0.000417
   -4   -1    2    6    5    0.002212    0.005436
   -4   -1    2    1    6   -0.007307   -0.011169
   -4   -1    2    2    6   -0.000646   -0.007562
   -4   -1    2    3    6    0.000485   -0.002043
   -4   -1    2    4    6    0.000435   -0.005224
   -4   -1    2    5    6   -0.000547   -0.005018
   -4   -1    2    6    6   -0.007181    0.000283
   -4   -1    3    1    1    0.005572    0.002696
   -4   -1    3    2    1   -0.007447    0.002593
   -4   -1    3    3    1   -0.004223   -0.006497
   -4   -1    3    4    1   -0.002301   -0.002263
   -4   -1    3    5    1    0.002817   -0.007561
   -4   -1    3    6    1   -0.004845    0.005359
   -4   -1    3    1    2   -0.007074   -0.003717
   -4   -1    3    2    2   -0.003037   -0.002983
   -4   -1    3    3    2    0.000920    0.000948
   -4   -1    3    4    2   -0.002034   -0.006174
   -4   -1    3    5    2   -0.000783   -0.001328
   -4   -1    3    6    2    0.001092    0.004865
   -4   -1    3    1    3   -0.004545    0.006059
   -4   -1    3    2    3    0.002734   -0.004700
   -4   -1    3    3    3   -0.000465   -0.001988
   -4   -1    3    4    3    0.005139   -0.000125
   -4   -1    3    5    3   -0.002784    0.000826
   -4   -1    3    6    3    0.001151   -0.000756
   -4   -1    3    1    4    0.001129    0.003199
   -4   -1    3    2    4   -0.005180    0.004900
   -4   -1    3    3    4    0.001370    0.002651
   -4   -1    3    4    4   -0.006777   -0.000405
   -4   -1    3    5    4    0.000022    0.004070
   -4   -1    3    6    4    0.001578   -0.000303
   -4   -1    3    1    5    0.001485    0.004069
   -4   -1    3    2    5    0.000019   -0.000242
   -4   -1    3    3    5   -0.001805   -0.003058
   -4   -1    3    4    5    0.000949   -0.005325
   -4   -1    3    5    5    0.000288    0.000144
   -4   -1    3    6    5   -0.002508    0.005493
   -4   -1    3    1    6   -0.006608   -0.007382
   -4   -1    3    2    6   -0.002471   -0.004468
   -4   -1    3    3    6    0.000330    0.001958
   -4   -1    3    4    6   -0.000208    0.001250
   -4   -1    3    5    6   -0.002839   -0.006684
   -4   -1    3    6    6   -0.000176    0.002534
   -4   -1    4    1    1   -0.000786   -0.001872
   -4   -1    4    2    1   -0.000655   -0.009669
   -4   -1    4    3    1    0.011424    0.000081
   -4   -1    4    4    1    0.004505   -0.010399
   -4   -1    4    5    1   -0.005696    0.006947
   -4   -1    4    6    1   -0.001388   -0.004463
   -4   -1    4    1    2   -0.001139    0.010705
   -4   -1    4    2    2   -0.007597    0.000471
   -4   -1    4    3    2    0.004346    0.001154
   -4   -1    4    4    2   -0.001054   -0.008348
   -4   -1    4    5    2    0.002941    0.001658
   -4   -1    4    6    2   -0.000001    0.004337
   -4   -1    4    1    3    0.016679   -0.001258
   -4   -1    4    2    3    0.005319   -0.001337
   -4   -1    4    3    3   -0.002279    0.001815
   -4   -1    4    4    3    0.001352    0.002187
   -4   -1    4    5    3    0.009567    0.000888
   -4   -1    4    6    3   -0.002089   -0.001063
   -4   -1    4    1    4    0.002161    0.010953
   -4   -1    4    2    4    0.000215    0.008796
   -4   -1    4    3    4    0.000739   -0.003678
   -4   -1    4    4    4    0.003698    0.000618
   -4   -1    4    5    4   -0.001301   -0.003845
   -4   -1    4    6    4    0.007963    0.005035
   -4   -1    4    1    5   -0.004885   -0.006663
   -4   -1    4    2    5    0.002698   -0.000922
   -4   -1    4    3    5    0.008614    0.000436
   -4   -1    4    4    5   -0.001488    0.004368
   -4   -1    4    5    5   -0.000526   -0.000222
   -4   -1    4    6    5    0.001125   -0.009945
   -4   -1    4    1    6   -0.003389    0.002476
   -4   -1    4    2    6    0.000109   -0.005484
   -4   -1    4    3    6   -0.000984    0.002200
   -4   -1    4    4    6    0.006047   -0.004811
   -4   -1    4    5    6    0.001473    0.009303
   -4   -1    4    6    6    0.006194   -0.000811
   -4    0    0    1    1    0.010682   -0.000000
   -4    0    0    2    1   -0.005280   -0.010684
   -4    0    0    3    1   -0.015895   -0.033156
   -4    0    0    4    1   -0.002286   -0.005864
   -4    0    0    5    1    0.001249   -0.009874
   -4    0    0    6    1    0.004400   -0.032034
   -4    0    0    1    2   -0.005280    0.010684
   -4    0    0    2    2   -0.004971   -0.000000
   -4    0    0    3    2    0.002644    0.000641
   -4    0    0    4    2   -0.007481   -0.000365
   -4    0    0    5    2    0.000517   -0.000766
   -4    0    0    6    2    0.002901    0.009220
   -4    0    0    1    3   -0.015895    0.033156
   -4    0    0    2    3    0.002644   -0.000641
   -4    0    0    3    3   -0.007222   -0.000000
   -4    0    0    4    3   -0.002139   -0.013814
   -4    0    0    5    3    0.000492    0.003581
   -4    0    0    6    3    0.004832    0.009639
   -4    0    0    1    4   -0.002286    0.005864
   -4    0    0    2    4   -0.007481    0.000365
   -4    0    0    3    4   -0.002139    0.013814
   -4    0    0    4    4   -0.006232   -0.000000
   -4    0    0    5    4   -0.005633   -0.000725
   -4    0    0    6    4   -0.005471    0.014066
   -4    0    0    1    5    0.001249    0.009874
   -4    0    0    2    5    0.000517    0.000766
   -4    0    0    3    5    0.000492   -0.003581
   -4    0    0    4    5   -0.005633    0.000725
   -4    0    0    5    5    0.001908   -0.000000
   -4    0    0    6    5    0.004469   -0.000190
   -4    0    0    1    6    0.004400    0.032034
   -4    0    0    2    6    0.002901   -0.009220
   -4    0    0    3    6    0.004832   -0.009639
   -4    0    0    4    6   -0.005471   -0.014066
   -4    0    0    5    6    0.004469    0.000190
   -4    0    0    6    6   -0.013368   -0.000000
   -4    0    1    1    1   -0.010842    0.004327
   -4    0    1    2    1   -0.003994   -0.002952
   -4    0    1    3    1    0.012272    0.009388
   -4    0    1    4    1   -0.009030    0.002420
   -4    0    1    5    1    0.003094    0.000425
   -4    0    1    6    1    0.008313    0.023517
   -4    0    1    1    2   -0.002635    0.000866
   -4    0    1    2    2   -0.001664    0.005358
   -4    0    1    3    2   -0.003163   -0.001918
   -4    0    1    4    2    0.000136   -0.001168
   -4    0    1    5    2   -0.002377   -0.001421
   -4    0    1    6    2   -0.002253    0.001285
   -4    0    1    1    3    0.010492   -0.010442
   -4    0    1    2    3   -0.004541    0.008036
   -4    0    1    3    3    0.003145   -0.008951
   -4    0    1    4    3   -0.000781    0.009393
   -4    0    1    5    3    0.007492   -0.003285
   -4    0    1    6    3   -0.005549   -0.004120
   -4    0    1    1    4   -0.009384   -0.004105
   -4    0    1    2    4    0.005162    0.004435
   -4    0    1    3    4   -0.006244    0.003409
   -4    0    1    4    4   -0.000147   -0.001438
   -4    0    1    5    4   -0.003008   -0.002540
   -4    0    1    6    4    0.002079    0.001821
   -4    0    1    1    5    0.003229   -0.002362
   -4    0    1    2    5   -0.000707    0.000591
   -4    0    1    3    5    0.007555    0.000335
   -4    0    1    4    5   -0.001659   -0.000768
   -4    0    1    5    5    0.001275    0.001245
   -4    0    1    6    5   -0.002034    0.002032
   -4    0    1    1    6    0.012833   -0.021520
   -4    0    1    2    6   -0.000791    0.006550
   -4    0    1    3    6   -0.001529    0.001108
   -4    0    1    4    6    0.000607    0.001732
   -4    0    1    5    6   -0.005323   -0.000673
   -4    0    1    6    6    0.003108   -0.000542
   -4    0    2    1    1   -0.011194   -0.012932
   -4    0    2    2    1    0.014172    0.006162
   -4    0    2    3    1   -0.000459   -0.012562
   -4    0    2    4    1    0.018441   -0.002673
   -4    0    2    5    1   -0.000442    0.000325
   -4    0    2    6    1    0.005771    0.002927
   -4    0    2    1    2    0.017009   -0.005392
   -4    0    2    2    2    0.002692    0.006015
   -4    0    2    3    2   -0.007163    0.003127
   -4    0    2    4    2    0.010397   -0.001054
   -4    0    2    5    2   -0.000633    0.001257
   -4    0    2    6    2   -0.001753   -0.000465
   -4    0    2    1    3   -0.006078    0.017910
   -4    0    2    2    3   -0.012295    0.003655
   -4    0    2    3    3    0.005897    0.001306
   -4    0    2    4    3    0.000685    0.003787
   -4    0    2    5    3   -0.006044    0.006048
   -4    0    2    6    3   -0.008708   -0.004145
   -4    0    2    1    4    0.015842    0.001278
   -4    0    2    2    4    0.012888    0.001564
   -4    0    2    3    4    0.004024   -0.003038
   -4    0    2    4    4    0.008949   -0.000246
   -4    0    2    5    4    0.002319   -0.002389
   -4    0    2    6    4    0.014494   -0.000023
   -4    0    2    1    5   -0.005312   -0.007128
   -4    0    2    2    5   -0.001107   -0.001230
   -4    0    2    3    5   -0.006160    0.001099
   -4    0    2    4    5    0.002685   -0.001401
   -4    0    2    5    5   -0.001636    0.001163
   -4    0    2    6    5   -0.003669   -0.003799
   -4    0    2    1    6    0.002913   -0.000794
   -4    0    2    2    6   -0.001374    0.004690
   -4    0    2    3    6   -0.007674    0.006223
   -4    0    2    4    6    0.009924    0.005018
   -4    0    2    5    6   -0.002539    0.003131
   -4    0    2    6    6   -0.002080    0.004694
   -4    0    3    1    1   -0.006002   -0.000682
   -4    0    3    2    1    0.008978   -0.000896
   -4    0    3    3    1   -0.005510    0.005627
   -4    0    3    4    1    0.001943    0.010829
   -4    0    3    5    1    0.001280    0.003150
   -4    0    3    6    1    0.005589   -0.018755
   -4    0    3    1    2    0.009536   -0.000227
   -4    0    3    2    2    0.006883    0.003669
   -4    0    3    3    2   -0.003775    0.000841
   -4    0    3    4    2    0.005754    0.004799
   -4    0    3    5    2    0.003139    0.000128
   -4    0    3    6    2   -0.001712    0.002110
   -4    0    3    1    3   -0.001551   -0.001376
   -4    0    3    2    3   -0.004623    0.001816
   -4    0    3    3    3    0.002080   -0.002222
   -4    0    3    4    3   -0.002541    0.001900
   -4    0    3    5    3   -0.003010   -0.003581
   -4    0    3    6    3   -0.001172    0.000572
   -4    0    3    1    4    0.001876   -0.009243
   -4    0    3    2    4    0.008237   -0.003657
   -4    0    3    3    4   -0.001575   -0.003652
   -4    0    3    4    4    0.005391    0.000678
   -4    0    3    5    4    0.001793    0.001699
   -4    0    3    6    4    0.001430   -0.000944
   -4    0    3    1    5    0.002747   -0.004371
   -4    0    3    2    5    0.002876   -0.001120
   -4    0    3    3    5   -0.003302    0.000452
   -4    0    3    4    5    0.001633   -0.000261
   -4    0    3    5    5   -0.003832   -0.001363
   -4    0    3    6    5    0.004601    0.004379
   -4    0    3    1    6    0.009902    0.020134
   -4    0    3    2    6   -0.000305    0.001919
   -4    0    3    3    6    0.001688    0.000274
   -4    0    3    4    6    0.002780   -0.002518
   -4    0    3    5    6    0.003379    0.000778
   -4    0    3    6    6   -0.008333   -0.000079
   -4    0    4    1    1   -0.011406   -0.000000
   -4    0    4    2    1   -0.006075    0.012200
   -4    0    4    3    1   -0.001837   -0.000600
   -4    0    4    4    1   -0.002644    0.011710
   -4    0    4    5    1   -0.005921   -0.007682
   -4    0    4    6    1    0.002043    0.021916
   -4    0    4    1    2   -0.006075   -0.012200
   -4    0    4    2    2    0.010393    0.000000
   -4    0    4    3    2    0.002507    0.000488
   -4    0    4    4    2    0.000296    0.010081
   -4    0    4    5    2   -0.002735   -0.002443
   -4    0    4    6    2    0.000534   -0.007986
   -4    0    4    1    3   -0.001837    0.000600
   -4    0    4    2    3    0.002507   -0.000488
   -4    0    4    3    3   -0.014006    0.000000
   -4    0    4    4    3   -0.000575   -0.003217
   -4    0    4    5    3    0.004772   -0.000410
   -4    0    4    6    3    0.001529   -0.007630
   -4    0    4    1    4   -0.002644   -0.011710
   -4    0    4    2    4    0.000296   -0.010081
   -4    0    4    3    4   -0.000575    0.003217
   -4    0    4    4    4   -0.004625   -0.000000
   -4    0    4    5    4    0.000063    0.001226
   -4    0    4    6    4   -0.008886   -0.005190
   -4    0    4    1    5   -0.005921    0.007682
   -4    0    4    2    5   -0.002735    0.002443
   -4    0    4    3    5    0.004772    0.000410
   -4    0    4    4    5    0.000063   -0.001226
   -4    0    4    5    5    0.006789   -0.000000
   -4    0    4    6    5   -0.000270    0.002010
   -4    0    4    1    6    0.002043   -0.021916
   -4    0    4    2    6    0.000534    0.007986
   -4    0    4    3    6    0.001529    0.007630
   -4    0    4    4    6   -0.008886    0.005190
   -4    0    4    5    6   -0.000270   -0.002010
   -4    0    4    6    6   -0.002860    0.000000
   -4    1   -1    1    1    0.000964   -0.007670
   -4    1   -1    2    1    0.000818    0.012205
   -4    1   -1    3    1    0.011609    0.018714
   -4    1   -1    4    1   -0.002684   -0.002278
   -4    1   -1    5    1   -0.003048   -0.000357
   -4    1   -1    6    1   -0.012345    0.022282
   -4    1   -1    1    2    0.002124   -0.009244
   -4    1   -1    2    2    0.000892    0.004259
   -4    1   -1    3    2    0.000279    0.006178
   -4    1   -1    4    2   -0.002249    0.005109
   -4    1   -1    5    2   -0.000794    0.000171
   -4    1   -1    6    2   -0.002557    0.003458
   -4    1   -1    1    3    0.014277   -0.021878
   -4    1   -1    2    3    0.001216   -0.004094
   -4    1   -1    3    3   -0.002042    0.005581
   -4    1   -1    4    3    0.004943   -0.002484
   -4    1   -1    5    3    0.000445    0.006956
   -4    1   -1    6    3   -0.007391   -0.003176
   -4    1   -1    1    4   -0.010222    0.003549
   -4    1   -1    2    4    0.000539    0.002981
   -4    1   -1    3    4    0.004282    0.001140
   -4    1   -1    4    4   -0.004191    0.000429
   -4    1   -1    5    4    0.003104    0.000704
   -4    1   -1    6    4    0.000599    0.006600
   -4    1   -1    1    5    0.000588   -0.002078
   -4    1   -1    2    5   -0.000589   -0.001531
   -4    1   -1    3    5   -0.000419   -0.006785
   -4    1   -1    4    5    0.003719    0.001057
   -4    1   -1    5    5    0.000627   -0.000581
   -4    1   -1    6    5   -0.000151   -0.011321
   -4    1   -1    1    6   -0.006626   -0.021308
   -4    1   -1    2    6   -0.001181   -0.002994
   -4    1   -1    3    6   -0.011686    0.007334
   -4    1   -1    4    6   -0.000703   -0.003900
   -4    1   -1    5    6   -0.002063    0.008575
   -4    1   -1    6    6    0.001818   -0.002018
   -4    1    0    1    1   -0.020378   -0.004185
   -4    1    0    2    1    0.003250    0.004857
   -4    1    0    3    1    0.003420    0.022921
   -4    1    0    4    1    0.007086    0.013804
   -4    1    0    5    1    0.000014    0.000902
   -4    1    0    6    1   -0.003308    0.002947
   -4    1    0    1    2    0.001931   -0.002002
   -4    1    0    2    2    0.005482   -0.000093
   -4    1    0    3    2   -0.002009   -0.003941
   -4    1    0    4    2    0.006036    0.002290
   -4    1    0    5    2    0.000076    0.000316
   -4    1    0    6    2    0.000210   -0.009042
   -4    1    0    1    3    0.001719   -0.022071
   -4    1    0    2    3    0.000853    0.000979
   -4    1    0    3    3   -0.013243    0.003183
   -4    1    0    4    3   -0.002928   -0.005500
   -4    1    0    5    3    0.000075   -0.001735
   -4    1    0    6    3    0.004087    0.009421
   -4    1    0    1    4    0.012980   -0.016753
   -4    1    0    2    4    0.004083    0.000088
   -4    1    0    3    4   -0.003007    0.004353
   -4    1    0    4    4    0.014184   -0.000352
   -4    1    0    5    4   -0.009053   -0.000117
   -4    1    0    6    4   -0.000089   -0.006883
   -4    1    0    1    5   -0.005941   -0.000030
   -4    1    0    2    5   -0.000170   -0.002388
   -4    1    0    3    5    0.000666    0.000903
   -4    1    0    4    5   -0.005888   -0.001347
   -4    1    0    5    5    0.002598    0.001028
   -4    1    0    6    5    0.005437    0.001804
   -4    1    0    1    6   -0.006766   -0.001533
   -4    1    0    2    6    0.000030    0.006385
   -4    1    0    3    6    0.001948   -0.010038
   -4    1    0    4    6    0.003134    0.011322
   -4    1    0    5    6    0.005826   -0.005420
   -4    1    0    6    6    0.006766    0.000418
   -4    1    1    1    1    0.006571    0.014146
   -4    1    1    2    1    0.014076   -0.004015
   -4    1    1    3    1   -0.015898   -0.029424
   -4    1    1    4    1    0.028292    0.003217
   -4    1    1    5    1   -0.022942   -0.010966
   -4    1    1    6    1    0.019071   -0.030733
   -4    1    1    1    2    0.013963    0.010401
   -4    1    1    2    2    0.003634   -0.004736
   -4    1    1    3    2    0.004305   -0.004640
   -4    1    1    4    2    0.008443    0.005398
   -4    1    1    5    2    0.002535   -0.001352
   -4    1    1    6    2   -0.002770   -0.003822
   -4    1    1    1    3   -0.028678    0.031447
   -4    1    1    2    3    0.005281   -0.005065
   -4    1    1    3    3    0.007952   -0.006187
   -4    1    1    4    3   -0.006748    0.008230
   -4    1    1    5    3    0.011321    0.000507
   -4    1    1    6    3    0.008219   -0.008853
   -4    1    1    1    4    0.039894   -0.004261
   -4    1    1    2    4    0.004781   -0.005969
   -4    1    1    3    4   -0.009928   -0.007551
   -4    1    1    4    4    0.025283    0.000705
   -4    1    1    5    4    0.000656   -0.004213
   -4    1    1    6    4   -0.010252   -0.001628
   -4    1    1    1    5   -0.017869    0.007374
   -4    1    1    2    5    0.001757    0.001424
   -4    1    1    3    5    0.008441   -0.001972
   -4    1    1    4    5   -0.003816    0.003082
   -4    1    1    5    5   -0.000239   -0.000924
   -4    1    1    6    5    0.006114   -0.001020
   -4    1    1    1    6    0.002125    0.035583
   -4    1    1    2    6   -0.009109    0.000311
   -4    1    1    3    6    0.007532    0.000598
   -4    1    1    4    6   -0.006847    0.003267
   -4    1    1    5    6    0.005351    0.007300
   -4    1    1    6    6   -0.012595   -0.003004
   -4    1    2    1    1    0.040318    0.007704
   -4    1    2    2    1    0.012557   -0.011409
   -4    1    2    3    1   -0.009025   -0.003065
   -4    1    2    4    1   -0.012319    0.009363
   -4    1    2    5    1    0.011485    0.007368
   -4    1    2    6    1    0.011768    0.010417
   -4    1    2    1    2    0.005100    0.009192
   -4    1    2    2    2   -0.002362   -0.004852
   -4    1    2    3    2   -0.006245   -0.004912
   -4    1    2    4    2   -0.002030    0.004248
   -4    1    2    5    2   -0.001764   -0.001560
   -4    1    2    6    2   -0.007636   -0.005582
   -4    1    2    1    3   -0.010123    0.000482
   -4    1    2    2    3   -0.004717    0.000358
   -4    1    2    3    3    0.021453    0.002003
   -4    1    2    4    3   -0.007571   -0.000952
   -4    1    2    5    3   -0.009841    0.001520
   -4    1    2    6    3    0.008079   -0.004795
   -4    1    2    1    4   -0.000345   -0.004352
   -4    1    2    2    4   -0.003300   -0.003390
   -4    1    2    3    4   -0.008623   -0.000884
   -4    1    2    4    4   -0.011918    0.001323
   -4    1    2    5    4    0.006398    0.001117
   -4    1    2    6    4   -0.011092   -0.003924
   -4    1    2    1    5    0.012713   -0.003460
   -4    1    2    2    5   -0.001205    0.003565
   -4    1    2    3    5   -0.005704    0.003437
   -4    1    2    4    5    0.005676   -0.002253
   -4    1    2    5    5   -0.005659    0.000927
   -4    1    2    6    5   -0.001875    0.002684
   -4    1    2    1    6    0.005960   -0.010201
   -4    1    2    2    6   -0.007372   -0.001091
   -4    1    2    3    6    0.001989   -0.001375
   -4    1    2    4    6   -0.003707   -0.000971
   -4    1    2    5    6   -0.001819   -0.001846
   -4    1    2    6    6   -0.012930   -0.007105
   -4    1    3    1    1    0.000146    0.002997
   -4    1    3    2    1   -0.000446   -0.003133
   -4    1    3    3    1   -0.002715   -0.000145
   -4    1    3    4    1   -0.010410   -0.010265
   -4    1    3    5    1    0.010848   -0.002571
   -4    1    3    6    1    0.000222    0.000717
   -4    1    3    1    2   -0.003138    0.001983
   -4    1    3    2    2   -0.005566   -0.004398
   -4    1    3    3    2   -0.002285   -0.004094
   -4    1    3    4    2   -0.002544   -0.002919
   -4    1    3    5    2   -0.002058    0.001204
   -4    1    3    6    2    0.000336   -0.000981
   -4    1    3    1    3   -0.003935    0.004389
   -4    1    3    2    3   -0.000781    0.000700
   -4    1    3    3    3    0.001816   -0.000054
   -4    1    3    4    3    0.002158   -0.003434
   -4    1    3    5    3   -0.007006    0.001279
   -4    1    3    6    3   -0.000139    0.007878
   -4    1    3    1    4   -0.007220    0.010257
   -4    1    3    2    4   -0.006026    0.001653
   -4    1    3    3    4    0.000093    0.002611
   -4    1    3    4    4   -0.007024    0.001081
   -4    1    3    5    4    0.001356    0.000586
   -4    1    3    6    4    0.001936    0.001408
   -4    1    3    1    5    0.011782    0.001074
   -4    1    3    2    5   -0.001172   -0.000037
   -4    1    3    3    5   -0.007440   -0.000958
   -4    1    3    4    5    0.000430   -0.001535
   -4    1    3    5    5    0.003522   -0.000265
   -4    1    3    6    5   -0.007403    0.005997
   -4    1    3    1    6   -0.006521   -0.003338
   -4    1    3    2    6    0.000635   -0.001573
   -4    1    3    3    6    0.001552   -0.007609
   -4    1    3    4    6    0.002160    0.001075
   -4    1    3    5    6   -0.005887   -0.007818
   -4    1    3    6    6    0.003268    0.000639
   -4    1    4    1    1   -0.000786    0.001872
   -4    1    4    2    1   -0.001139   -0.010705
   -4    1    4    3    1    0.016679    0.001258
   -4    1    4    4    1    0.002161   -0.010953
   -4    1    4    5    1   -0.004885    0.006663
   -4    1    4    6    1   -0.003389   -0.002476
   -4    1    4    1    2   -0.000655    0.009669
   -4    1    4    2    2   -0.007597   -0.000471
   -4    1    4    3    2    0.005319    0.001337
   -4    1    4    4    2    0.000215   -0.008796
   -4    1    4    5    2    0.002698    0.000922
   -4    1    4    6    2    0.000109    0.005484
   -4    1    4    1    3    0.011424   -0.000081
   -4    1    4    2    3    0.004346   -0.001154
   -4    1    4    3    3   -0.002279   -0.001815
   -4    1    4    4    3    0.000739    0.003678
   -4    1    4    5    3    0.008614   -0.000436
   -4    1    4    6    3   -0.000984   -0.002200
   -4    1    4    1    4    0.004505    0.010399
   -4    1    4    2    4   -0.001054    0.008348
   -4    1    4    3    4    0.001352   -0.002187
   -4    1    4    4    4    0.003698   -0.000618
   -4    1    4    5    4   -0.001488   -0.004368
   -4    1    4    6    4    0.006047    0.004811
   -4    1    4    1    5   -0.005696   -0.006947
   -4    1    4    2    5    0.002941   -0.001658
   -4    1    4    3    5    0.009567   -0.000888
   -4    1    4    4    5   -0.001301    0.003845
   -4    1    4    5    5   -0.000526    0.000222
   -4    1    4    6    5    0.001473   -0.009303
   -4    1    4    1    6   -0.001388    0.004463
   -4    1    4    2    6   -0.000001   -0.004337
   -4    1    4    3    6   -0.002089    0.001063
   -4    1    4    4    6    0.007963   -0.005035
   -4    1    4    5    6    0.001125    0.009945
   -4    1    4    6    6    0.006194    0.000811
   -4    2   -2    1    1   -0.003404    0.007379
   -4    2   -2    2    1    0.004343   -0.004593
   -4    2   -2    3    1   -0.012530   -0.025581
   -4    2   -2    4    1    0.021877    0.004583
   -4    2   -2    5    1   -0.004050   -0.000174
   -4    2   -2    6    1    0.005607   -0.022737
   -4    2   -2    1    2   -0.000512    0.009457
   -4    2   -2    2    2    0.001511   -0.003247
   -4    2   -2    3    2   -0.002390   -0.000481
   -4    2   -2    4    2    0.007590    0.000076
   -4    2   -2    5    2   -0.000129    0.000845
   -4    2   -2    6    2    0.000227   -0.002072
   -4    2   -2    1    3   -0.012690    0.026092
   -4    2   -2    2    3   -0.000131   -0.002496
   -4    2   -2    3    3    0.003790   -0.001090
   -4    2   -2    4    3   -0.001562    0.001523
   -4    2   -2    5    3    0.000598   -0.002946
   -4    2   -2    6    3    0.001717   -0.004231
   -4    2   -2    1    4    0.023918   -0.003885
   -4    2   -2    2    4    0.002603   -0.000591
   -4    2   -2    3    4    0.001522    0.000800
   -4    2   -2    4    4    0.002960   -0.000810
   -4    2   -2    5    4   -0.001061    0.000201
   -4    2   -2    6    4    0.003073   -0.003105
   -4    2   -2    1    5   -0.001667   -0.000475
   -4    2   -2    2    5    0.000143   -0.000449
   -4    2   -2    3    5   -0.001645   -0.001362
   -4    2   -2    4    5   -0.000616    0.000228
   -4    2   -2    5    5   -0.000823   -0.001770
   -4    2   -2    6    5   -0.002738   -0.000606
   -4    2   -2    1    6    0.004048    0.022711
   -4    2   -2    2    6    0.004169    0.001954
   -4    2   -2    3    6    0.003797    0.000209
   -4    2   -2    4    6    0.007498    0.003562
   -4    2   -2    5    6   -0.001367   -0.000853
   -4    2   -2    6    6    0.001351   -0.000462
   -4    2   -1    1    1   -0.002951    0.001009
   -4    2   -1    2    1    0.001049   -0.005957
   -4    2   -1    3    1   -0.005457   -0.005457
   -4    2   -1    4    1   -0.005493   -0.005076
   -4    2   -1    5    1   -0.006307    0.000280
   -4    2   -1    6    1    0.010458    0.001460
   -4    2   -1    1    2    0.004612    0.007039
   -4    2   -1    2    2   -0.000219   -0.003038
   -4    2   -1    3    2    0.000782   -0.006458
   -4    2   -1    4    2    0.006173   -0.003426
   -4    2   -1    5    2    0.001680   -0.001328
   -4    2   -1    6    2   -0.002371   -0.005843
   -4    2   -1    1    3   -0.004798    0.007025
   -4    2   -1    2    3    0.000151    0.002143
   -4    2   -1    3    3   -0.002716    0.002656
   -4    2   -1    4    3    0.005028    0.001183
   -4    2   -1    5    3    0.001968    0.000523
   -4    2   -1    6    3   -0.004230   -0.005658
   -4    2   -1    1    4   -0.007342    0.009134
   -4    2   -1    2    4    0.003404    0.002194
   -4    2   -1    3    4    0.004456   -0.005696
   -4    2   -1    4    4    0.005267   -0.001282
   -4    2   -1    5    4    0.003257   -0.002380
   -4    2   -1    6    4   -0.000312   -0.002715
   -4    2   -1    1    5   -0.003443    0.003838
   -4    2   -1    2    5    0.000620    0.000221
   -4    2   -1    3    5    0.005208    0.000404
   -4    2   -1    4    5   -0.000100    0.003532
   -4    2   -1    5    5    0.000086    0.000937
   -4    2   -1    6    5   -0.000086    0.001318
   -4    2   -1    1    6    0.014233    0.001465
   -4    2   -1    2    6   -0.001739    0.002117
   -4    2   -1    3    6   -0.005538    0.007299
   -4    2   -1    4    6    0.001983    0.002654
   -4    2   -1    5    6    0.000419   -0.001506
   -4    2   -1    6    6   -0.004004   -0.000282
   -4    2    0    1    1    0.034917    0.002100
   -4    2    0    2    1   -0.000201    0.002211
   -4    2    0    3    1    0.027293   -0.000656
   -4    2    0    4    1    0.013723    0.001877
   -4    2    0    5    1   -0.002737   -0.001286
   -4    2    0    6    1   -0.009640   -0.004233
   -4    2    0    1    2    0.000102    0.001436
   -4    2    0    2    2   -0.006404    0.000037
   -4    2    0    3    2    0.001192    0.001427
   -4    2    0    4    2   -0.008445   -0.003241
   -4    2    0    5    2    0.000955    0.003274
   -4    2    0    6    2    0.000680    0.001114
   -4    2    0    1    3    0.033227    0.001648
   -4    2    0    2    3   -0.000986   -0.001732
   -4    2    0    3    3   -0.012617    0.002340
   -4    2    0    4    3    0.002338   -0.001593
   -4    2    0    5    3   -0.002437    0.003626
   -4    2    0    6    3   -0.002301    0.007180
   -4    2    0    1    4    0.013149    0.001443
   -4    2    0    2    4   -0.008746    0.006493
   -4    2    0    3    4    0.001786   -0.001619
   -4    2    0    4    4   -0.000547    0.002020
   -4    2    0    5    4   -0.007525   -0.002181
   -4    2    0    6    4   -0.009635    0.006302
   -4    2    0    1    5   -0.002091   -0.003414
   -4    2    0    2    5    0.000371   -0.001555
   -4    2    0    3    5   -0.000857    0.003341
   -4    2    0    4    5   -0.007700   -0.001232
   -4    2    0    5    5   -0.002411   -0.000284
   -4    2    0    6    5    0.008934   -0.001542
   -4    2    0    1    6   -0.011615    0.006193
   -4    2    0    2    6    0.003574   -0.007789
   -4    2    0    3    6    0.000074   -0.006582
   -4    2    0    4    6   -0.011089   -0.008745
   -4    2    0    5    6    0.013487    0.001232
   -4    2    0    6    6   -0.000485   -0.006212
   -4    2    1    1    1    0.013724   -0.008956
   -4    2    1    2    1   -0.022745    0.002341
   -4    2    1    3    1   -0.018249    0.027397
   -4    2    1    4    1   -0.011791   -0.035595
   -4    2    1    5    1   -0.001148    0.013320
   -4    2    1    6    1   -0.039658    0.004208
   -4    2    1    1    2   -0.024930   -0.005088
   -4    2    1    2    2   -0.007368    0.002894
   -4    2    1    3    2    0.003965    0.003231
   -4    2    1    4    2   -0.010857   -0.000691
   -4    2    1    5    2    0.000329   -0.001122
   -4    2    1    6    2    0.001788   -0.001904
   -4    2    1    1    3   -0.025507   -0.033426
   -4    2    1    2    3    0.005461   -0.001008
   -4    2    1    3    3    0.004262    0.000059
   -4    2    1    4    3   -0.005567   -0.002629
   -4    2    1    5    3    0.010449    0.001680
   -4    2    1    6    3    0.008027    0.005005
   -4    2    1    1    4   -0.011780    0.037873
   -4    2    1    2    4   -0.006202    0.005938
   -4    2    1    3    4   -0.007162   -0.001617
   -4    2    1    4    4   -0.012272    0.006754
   -4    2    1    5    4    0.001464   -0.002867
   -4    2    1    6    4   -0.009160   -0.003080
   -4    2    1    1    5    0.001652   -0.005038
   -4    2    1    2    5    0.001468   -0.000805
   -4    2    1    3    5    0.007104   -0.002930
   -4    2    1    4    5    0.001997   -0.000846
   -4    2    1    5    5    0.003304    0.000139
   -4    2    1    6    5   -0.000423    0.003179
   -4    2    1    1    6   -0.033355   -0.008838
   -4    2    1    2    6    0.004749    0.000550
   -4    2    1    3    6    0.016199   -0.003886
   -4    2    1    4    6   -0.010176    0.002605
   -4    2    1    5    6   -0.004075   -0.001059
   -4    2    1    6    6    0.028951   -0.000891
   -4    2    2    1    1   -0.015937   -0.015946
   -4    2    2    2    1   -0.015767    0.001381
   -4    2    2    3    1   -0.006404    0.013557
   -4    2    2    4    1   -0.001681    0.001636
   -4    2    2    5    1    0.014667   -0.011356
   -4    2    2    6    1   -0.017023   -0.000518
   -4    2    2    1    2   -0.009076    0.001626
   -4    2    2    2    2   -0.001189    0.004797
   -4    2    2    3    2    0.002332    0.003315
   -4    2    2    4    2   -0.000109   -0.001561
   -4    2    2    5    2   -0.000107    0.000860
   -4    2    2    6    2    0.004504    0.000956
   -4    2    2    1    3   -0.004556   -0.013923
   -4    2    2    2    3   -0.001442   -0.002954
   -4    2    2    3    3    0.009457    0.004832
   -4    2    2    4    3    0.003733   -0.007566
   -4    2    2    5    3   -0.009092   -0.001845
   -4    2    2    6    3   -0.000344    0.004226
   -4    2    2    1    4   -0.004613   -0.003841
   -4    2    2    2    4    0.001438    0.003508
   -4    2    2    3    4    0.005036    0.000570
   -4    2    2    4    4   -0.000561    0.001345
   -4    2    2    5    4    0.002770    0.007229
   -4    2    2    6    4    0.013091   -0.003265
   -4    2    2    1    5    0.007914    0.005083
   -4    2    2    2    5   -0.001337   -0.000972
   -4    2    2    3    5   -0.007231    0.000701
   -4    2    2    4    5    0.004689   -0.003989
   -4    2    2    5    5    0.000756   -0.000414
   -4    2    2    6    5   -0.009926   -0.002690
   -4    2    2    1    6   -0.017162    0.000437
   -4    2    2    2    6    0.001890    0.001218
   -4    2    2    3    6   -0.000778    0.002397
   -4    2    2    4    6    0.007353    0.004792
   -4    2    2    5    6   -0.011461    0.000354
   -4    2    2    6    6    0.010117    0.005386
   -4    2    3    1    1    0.006196   -0.003090
   -4    2    3    2    1    0.002442    0.003661
   -4    2    3    3    1   -0.007319    0.003792
   -4    2    3    4    1    0.006292    0.008483
   -4    2    3    5    1   -0.001471   -0.000932
   -4    2    3    6    1    0.001699   -0.011137
   -4    2    3    1    2    0.006582   -0.005105
   -4    2    3    2    2    0.002330    0.004367
   -4    2    3    3    2   -0.004495    0.003672
   -4    2    3    4    2    0.000732    0.003222
   -4    2    3    5    2   -0.000228   -0.000668
   -4    2    3    6    2   -0.002319    0.000618
   -4    2    3    1    3   -0.001632   -0.005562
   -4    2    3    2    3   -0.002783   -0.001039
   -4    2    3    3    3   -0.000957   -0.000460
   -4    2    3    4    3    0.002356   -0.005445
   -4    2    3    5    3   -0.003054   -0.000193
   -4    2    3    6    3   -0.003997    0.003830
   -4    2    3    1    4    0.003189   -0.007645
   -4    2    3    2    4    0.005217   -0.001873
   -4    2    3    3    4    0.000236    0.005920
   -4    2    3    4    4   -0.000260   -0.000713
   -4    2    3    5    4    0.001867   -0.002551
   -4    2    3    6    4    0.004235   -0.002620
[...]
    5   -3    1    4    6    0.004608    0.006273
    5   -3    1    5    6   -0.001956    0.001609
    5   -3    1    6    6    0.001532   -0.002320
    5   -2   -3    1    1    0.001124   -0.009276
    5   -2   -3    2    1   -0.000606    0.000102
    5   -2   -3    3    1    0.008727   -0.016363
    5   -2   -3    4    1    0.003054    0.010901
    5   -2   -3    5    1   -0.007352   -0.002931
    5   -2   -3    6    1    0.018799    0.010078
    5   -2   -3    1    2    0.001578   -0.000034
    5   -2   -3    2    2    0.002153    0.005276
    5   -2   -3    3    2    0.002516   -0.002896
    5   -2   -3    4    2    0.000816    0.003383
    5   -2   -3    5    2   -0.000306   -0.001947
    5   -2   -3    6    2    0.001160   -0.001712
    5   -2   -3    1    3    0.012655    0.018484
    5   -2   -3    2    3    0.002731    0.003562
    5   -2   -3    3    3   -0.006701    0.001144
    5   -2   -3    4    3   -0.004934    0.001804
    5   -2   -3    5    3    0.007504   -0.002201
    5   -2   -3    6    3    0.002763   -0.002360
    5   -2   -3    1    4    0.001153   -0.010299
    5   -2   -3    2    4    0.003867    0.000099
    5   -2   -3    3    4   -0.002895   -0.003940
    5   -2   -3    4    4    0.002375    0.000046
    5   -2   -3    5    4   -0.000730   -0.001425
    5   -2   -3    6    4   -0.005385   -0.002700
    5   -2   -3    1    5   -0.010204   -0.002982
    5   -2   -3    2    5   -0.000479    0.001314
    5   -2   -3    3    5    0.005730    0.004080
    5   -2   -3    4    5   -0.000792    0.000845
    5   -2   -3    5    5    0.001146    0.000065
    5   -2   -3    6    5    0.004027   -0.005942
    5   -2   -3    1    6    0.017666   -0.012517
    5   -2   -3    2    6   -0.000179    0.006360
    5   -2   -3    3    6    0.004177    0.004374
    5   -2   -3    4    6   -0.009169    0.000836
    5   -2   -3    5    6    0.007540    0.001153
    5   -2   -3    6    6    0.004832    0.002744
    5   -2   -2    1    1   -0.009400   -0.007454
    5   -2   -2    2    1    0.013623   -0.002341
    5   -2   -2    3    1    0.004024   -0.024276
    5   -2   -2    4    1    0.004693    0.011738
    5   -2   -2    5    1   -0.007824   -0.003079
    5   -2   -2    6    1    0.011197   -0.014755
    5   -2   -2    1    2    0.010575   -0.002814
    5   -2   -2    2    2    0.006236    0.003089
    5   -2   -2    3    2   -0.002897   -0.004556
    5   -2   -2    4    2    0.003062    0.006551
    5   -2   -2    5    2    0.000939    0.001076
    5   -2   -2    6    2    0.004788    0.003967
    5   -2   -2    1    3   -0.000723    0.017897
    5   -2   -2    2    3   -0.003648    0.001821
    5   -2   -2    3    3   -0.007399    0.002580
    5   -2   -2    4    3    0.003738    0.001878
    5   -2   -2    5    3   -0.001854    0.003668
    5   -2   -2    6    3   -0.001254   -0.001630
    5   -2   -2    1    4    0.004207   -0.008795
    5   -2   -2    2    4    0.003297   -0.002429
    5   -2   -2    3    4    0.002709   -0.002051
    5   -2   -2    4    4    0.008325   -0.001314
    5   -2   -2    5    4   -0.003550    0.000120
    5   -2   -2    6    4    0.002827    0.003823
    5   -2   -2    1    5   -0.005398    0.008369
    5   -2   -2    2    5    0.001789   -0.001201
    5   -2   -2    3    5    0.000628   -0.001958
    5   -2   -2    4    5   -0.003495    0.000832
    5   -2   -2    5    5   -0.000976    0.000653
    5   -2   -2    6    5    0.009336    0.000311
    5   -2   -2    1    6    0.007495    0.014851
    5   -2   -2    2    6    0.001933   -0.001820
    5   -2   -2    3    6   -0.003377    0.001631
    5   -2   -2    4    6    0.003383   -0.003939
    5   -2   -2    5    6    0.007040    0.001754
    5   -2   -2    6    6   -0.008294    0.002446
    5   -2   -1    1    1   -0.028001    0.003758
    5   -2   -1    2    1    0.005058   -0.010021
    5   -2   -1    3    1    0.010724   -0.000089
    5   -2   -1    4    1   -0.003664    0.016636
    5   -2   -1    5    1    0.003972    0.003568
    5   -2   -1    6    1    0.001730    0.014980
    5   -2   -1    1    2   -0.001539    0.010966
    5   -2   -1    2    2    0.008842    0.000560
    5   -2   -1    3    2   -0.002166   -0.004288
    5   -2   -1    4    2    0.011383    0.007315
    5   -2   -1    5    2   -0.002832   -0.000007
    5   -2   -1    6    2    0.005926   -0.001563
    5   -2   -1    1    3    0.009297   -0.003596
    5   -2   -1    2    3    0.000340    0.000573
    5   -2   -1    3    3   -0.001487   -0.005241
    5   -2   -1    4    3    0.004671    0.000520
    5   -2   -1    5    3   -0.002923   -0.003372
    5   -2   -1    6    3   -0.010148   -0.002048
    5   -2   -1    1    4    0.000592   -0.014489
    5   -2   -1    2    4    0.011360    0.000157
    5   -2   -1    3    4    0.004988    0.000544
    5   -2   -1    4    4    0.002198    0.006295
    5   -2   -1    5    4    0.001851   -0.001501
    5   -2   -1    6    4    0.007986   -0.005036
    5   -2   -1    1    5    0.007193   -0.008333
    5   -2   -1    2    5   -0.002383   -0.000956
    5   -2   -1    3    5   -0.002539    0.000765
    5   -2   -1    4    5   -0.001039   -0.003048
    5   -2   -1    5    5    0.001421   -0.001762
    5   -2   -1    6    5   -0.011327    0.002429
    5   -2   -1    1    6    0.001266   -0.018246
    5   -2   -1    2    6    0.005165    0.001966
    5   -2   -1    3    6   -0.007872   -0.000809
    5   -2   -1    4    6    0.011865    0.005901
    5   -2   -1    5    6   -0.010017   -0.001470
    5   -2   -1    6    6    0.002315   -0.003610
    5   -2    0    1    1   -0.006456   -0.002763
    5   -2    0    2    1   -0.008757    0.004319
    5   -2    0    3    1   -0.015088   -0.014177
    5   -2    0    4    1   -0.004394   -0.003622
    5   -2    0    5    1    0.008631    0.001932
    5   -2    0    6    1    0.009702   -0.011546
    5   -2    0    1    2   -0.006700   -0.005325
    5   -2    0    2    2    0.002333   -0.002357
    5   -2    0    3    2   -0.002096   -0.001710
    5   -2    0    4    2   -0.001455    0.003308
    5   -2    0    5    2    0.000791   -0.000457
    5   -2    0    6    2    0.001589   -0.003870
    5   -2    0    1    3   -0.016508    0.020805
    5   -2    0    2    3   -0.002701   -0.002424
    5   -2    0    3    3    0.011266    0.005437
    5   -2    0    4    3    0.002668   -0.000896
    5   -2    0    5    3   -0.000139    0.004056
    5   -2    0    6    3    0.003156   -0.004175
    5   -2    0    1    4    0.001395    0.006312
    5   -2    0    2    4   -0.003413   -0.002596
    5   -2    0    3    4   -0.000906   -0.006602
    5   -2    0    4    4   -0.012601   -0.001034
    5   -2    0    5    4    0.005691   -0.002129
    5   -2    0    6    4    0.001417    0.000577
    5   -2    0    1    5    0.004322    0.001489
    5   -2    0    2    5   -0.000631    0.000815
    5   -2    0    3    5    0.002099    0.001198
    5   -2    0    4    5    0.004691    0.003634
    5   -2    0    5    5   -0.000408    0.001825
    5   -2    0    6    5   -0.005190   -0.002470
    5   -2    0    1    6    0.009730    0.013387
    5   -2    0    2    6    0.004302   -0.002179
    5   -2    0    3    6    0.003967    0.006776
    5   -2    0    4    6    0.003971   -0.001694
    5   -2    0    5    6   -0.004850    0.003303
    5   -2    0    6    6    0.007096   -0.001109
    5   -1   -3    1    1   -0.009975    0.005425
    5   -1   -3    2    1   -0.006777    0.000646
    5   -1   -3    3    1    0.005924    0.001968
    5   -1   -3    4    1    0.006354   -0.009604
    5   -1   -3    5    1   -0.012418    0.000627
    5   -1   -3    6    1   -0.007873   -0.002195
    5   -1   -3    1    2   -0.006584   -0.001475
    5   -1   -3    2    2   -0.002246   -0.004990
    5   -1   -3    3    2    0.005504    0.004179
    5   -1   -3    4    2    0.001960   -0.006223
    5   -1   -3    5    2    0.000680    0.001705
    5   -1   -3    6    2   -0.002310   -0.002245
    5   -1   -3    1    3    0.007988    0.001055
    5   -1   -3    2    3    0.007871   -0.006118
    5   -1   -3    3    3   -0.009388    0.001115
    5   -1   -3    4    3    0.003903    0.000922
    5   -1   -3    5    3    0.009973    0.003340
    5   -1   -3    6    3   -0.002543   -0.003721
    5   -1   -3    1    4    0.014397    0.007958
    5   -1   -3    2    4   -0.000852    0.002945
    5   -1   -3    3    4    0.005162   -0.001702
    5   -1   -3    4    4    0.005498    0.002190
    5   -1   -3    5    4    0.000892   -0.001667
    5   -1   -3    6    4   -0.002783    0.002502
    5   -1   -3    1    5   -0.009387    0.000838
    5   -1   -3    2    5    0.000598    0.000118
    5   -1   -3    3    5    0.011729   -0.001352
    5   -1   -3    4    5    0.000937    0.003702
    5   -1   -3    5    5    0.001034   -0.000804
    5   -1   -3    6    5   -0.000663   -0.006268
    5   -1   -3    1    6   -0.010692    0.000886
    5   -1   -3    2    6    0.000345   -0.004952
    5   -1   -3    3    6   -0.005825    0.004538
    5   -1   -3    4    6    0.000427   -0.003380
    5   -1   -3    5    6   -0.000974    0.009227
    5   -1   -3    6    6    0.009548   -0.002937
    5   -1   -2    1    1   -0.005521    0.005000
    5   -1   -2    2    1   -0.013885    0.009017
    5   -1   -2    3    1    0.004401    0.023020
    5   -1   -2    4    1   -0.013373   -0.007972
    5   -1   -2    5    1    0.007919    0.000975
    5   -1   -2    6    1   -0.006221    0.009940
    5   -1   -2    1    2   -0.012063   -0.003698
    5   -1   -2    2    2   -0.003981   -0.002989
    5   -1   -2    3    2    0.002483    0.002590
    5   -1   -2    4    2   -0.006367   -0.005746
    5   -1   -2    5    2   -0.000155    0.002032
    5   -1   -2    6    2    0.004386   -0.001796
    5   -1   -2    1    3   -0.001320   -0.018520
    5   -1   -2    2    3    0.001997   -0.001672
    5   -1   -2    3    3   -0.006124   -0.000064
    5   -1   -2    4    3    0.003386   -0.007625
    5   -1   -2    5    3   -0.001591   -0.002237
    5   -1   -2    6    3    0.000213    0.002594
    5   -1   -2    1    4   -0.006558    0.011358
    5   -1   -2    2    4   -0.005930    0.004588
    5   -1   -2    3    4    0.002050    0.004566
    5   -1   -2    4    4   -0.006310    0.002293
    5   -1   -2    5    4   -0.006117   -0.000948
    5   -1   -2    6    4   -0.000470    0.002192
    5   -1   -2    1    5    0.006863   -0.003779
    5   -1   -2    2    5   -0.000391   -0.001066
    5   -1   -2    3    5   -0.003840    0.005256
    5   -1   -2    4    5   -0.006980   -0.003196
    5   -1   -2    5    5    0.003059    0.001180
    5   -1   -2    6    5    0.000250    0.006869
    5   -1   -2    1    6   -0.007955   -0.006856
    5   -1   -2    2    6    0.006286   -0.003445
    5   -1   -2    3    6    0.000278   -0.009781
    5   -1   -2    4    6    0.002293   -0.003058
    5   -1   -2    5    6    0.000662   -0.006496
    5   -1   -2    6    6    0.007387   -0.005422
    5   -1   -1    1    1    0.018922    0.007153
    5   -1   -1    2    1   -0.006369    0.015814
    5   -1   -1    3    1    0.011680    0.007716
    5   -1   -1    4    1   -0.024675   -0.007270
    5   -1   -1    5    1    0.006005   -0.001050
    5   -1   -1    6    1   -0.002320    0.010363
    5   -1   -1    1    2   -0.002487   -0.009255
    5   -1   -1    2    2   -0.006831   -0.001583
    5   -1   -1    3    2   -0.000574    0.001938
    5   -1   -1    4    2   -0.011186   -0.007797
    5   -1   -1    5    2    0.001584   -0.001442
    5   -1   -1    6    2   -0.003122    0.004349
    5   -1   -1    1    3    0.006929   -0.007872
    5   -1   -1    2    3   -0.001781   -0.005310
    5   -1   -1    3    3   -0.000232   -0.004664
    5   -1   -1    4    3    0.002222   -0.000328
    5   -1   -1    5    3   -0.003212    0.003184
    5   -1   -1    6    3    0.000971   -0.005848
    5   -1   -1    1    4   -0.023268    0.002317
    5   -1   -1    2    4   -0.011584    0.004423
    5   -1   -1    3    4   -0.002109    0.003646
    5   -1   -1    4    4   -0.014342   -0.001451
    5   -1   -1    5    4    0.008664    0.002440
    5   -1   -1    6    4   -0.002202    0.005505
    5   -1   -1    1    5    0.002489    0.002734
    5   -1   -1    2    5    0.000984    0.000992
    5   -1   -1    3    5   -0.003232   -0.003755
    5   -1   -1    4    5    0.009632   -0.002073
    5   -1   -1    5    5   -0.002253    0.000117
    5   -1   -1    6    5    0.003030   -0.002195
    5   -1   -1    1    6   -0.011118   -0.002455
    5   -1   -1    2    6   -0.004894   -0.006197
    5   -1   -1    3    6    0.001724    0.004170
    5   -1   -1    4    6   -0.001773   -0.006265
    5   -1   -1    5    6   -0.000251    0.006492
    5   -1   -1    6    6    0.000623    0.000428
    5    0   -3    1    1    0.003097   -0.007449
    5    0   -3    2    1   -0.005857   -0.000284
    5    0   -3    3    1    0.011044    0.019914
    5    0   -3    4    1   -0.019665    0.002499
    5    0   -3    5    1   -0.004087   -0.000314
    5    0   -3    6    1   -0.000057    0.018641
    5    0   -3    1    2   -0.005889   -0.001331
    5    0   -3    2    2    0.000013    0.004889
    5    0   -3    3    2    0.004829   -0.002579
    5    0   -3    4    2   -0.005444    0.003870
    5    0   -3    5    2   -0.000863   -0.002984
    5    0   -3    6    2    0.000499    0.002917
    5    0   -3    1    3    0.008961   -0.019170
    5    0   -3    2    3    0.003229    0.004653
    5    0   -3    3    3   -0.007334   -0.002163
    5    0   -3    4    3   -0.002451    0.003477
    5    0   -3    5    3    0.005583   -0.002058
    5    0   -3    6    3    0.002077   -0.001983
    5    0   -3    1    4   -0.021119    0.000134
    5    0   -3    2    4   -0.003265   -0.000199
    5    0   -3    3    4   -0.002668   -0.002469
    5    0   -3    4    4    0.003262   -0.000153
    5    0   -3    5    4   -0.002634    0.000008
    5    0   -3    6    4   -0.005757   -0.003096
    5    0   -3    1    5   -0.005963   -0.003656
    5    0   -3    2    5   -0.000856    0.000916
    5    0   -3    3    5    0.005189    0.000720
    5    0   -3    4    5   -0.000559   -0.002318
    5    0   -3    5    5    0.001648    0.000627
    5    0   -3    6    5   -0.003157   -0.003221
    5    0   -3    1    6   -0.001469   -0.019540
    5    0   -3    2    6   -0.000980    0.005595
    5    0   -3    3    6    0.002066    0.002810
    5    0   -3    4    6   -0.007339    0.001898
    5    0   -3    5    6   -0.002268    0.002640
    5    0   -3    6    6    0.004244    0.004250
    5    0   -2    1    1    0.006068   -0.005550
    5    0   -2    2    1    0.001785   -0.010764
    5    0   -2    3    1   -0.005062   -0.024206
    5    0   -2    4    1    0.014685    0.007512
    5    0   -2    5    1    0.003110   -0.009828
    5    0   -2    6    1    0.001126   -0.024599
    5    0   -2    1    2    0.000808    0.005444
    5    0   -2    2    2    0.001778    0.004259
    5    0   -2    3    2    0.004816    0.000941
    5    0   -2    4    2   -0.002074    0.004472
    5    0   -2    5    2   -0.000296    0.000695
    5    0   -2    6    2    0.002847    0.003894
    5    0   -2    1    3   -0.008105    0.025402
    5    0   -2    2    3    0.003552    0.002105
    5    0   -2    3    3    0.001440   -0.001325
    5    0   -2    4    3    0.000468   -0.000827
    5    0   -2    5    3   -0.000437    0.005016
    5    0   -2    6    3    0.005798    0.007924
    5    0   -2    1    4    0.014475   -0.007600
    5    0   -2    2    4   -0.002667   -0.004149
    5    0   -2    3    4    0.002270    0.005584
    5    0   -2    4    4   -0.005000   -0.002328
    5    0   -2    5    4    0.000856   -0.002848
    5    0   -2    6    4   -0.000797    0.002238
    5    0   -2    1    5    0.004294    0.004650
    5    0   -2    2    5    0.000399   -0.000300
    5    0   -2    3    5    0.000557    0.000115
    5    0   -2    4    5   -0.001485    0.002260
    5    0   -2    5    5   -0.000565    0.000344
    5    0   -2    6    5    0.006547   -0.001518
    5    0   -2    1    6    0.000161    0.022631
    5    0   -2    2    6    0.002553    0.000978
    5    0   -2    3    6    0.006215   -0.006596
    5    0   -2    4    6   -0.003372    0.002500
    5    0   -2    5    6    0.005524    0.001462
    5    0   -2    6    6   -0.001346    0.004601
    5    1   -3    1    1   -0.002451    0.006105
    5    1   -3    2    1    0.002628   -0.002208
    5    1   -3    3    1   -0.003871   -0.002740
    5    1   -3    4    1    0.010536   -0.000376
    5    1   -3    5    1   -0.006434   -0.001194
    5    1   -3    6    1    0.005182   -0.006340
    5    1   -3    1    2    0.001925    0.003924
    5    1   -3    2    2    0.000447   -0.004613
    5    1   -3    3    2    0.000554   -0.000319
    5    1   -3    4    2    0.005849   -0.000448
    5    1   -3    5    2    0.000988    0.001125
    5    1   -3    6    2   -0.000469   -0.004903
    5    1   -3    1    3    0.001440    0.007419
    5    1   -3    2    3    0.000376   -0.000076
    5    1   -3    3    3    0.000508    0.000224
    5    1   -3    4    3    0.003782    0.002640
    5    1   -3    5    3    0.006276    0.001786
    5    1   -3    6    3   -0.005487   -0.004182
    5    1   -3    1    4    0.013495    0.001737
    5    1   -3    2    4    0.002731   -0.002729
    5    1   -3    3    4    0.000783   -0.001608
    5    1   -3    4    4    0.000708   -0.000399
    5    1   -3    5    4    0.002342   -0.002833
    5    1   -3    6    4   -0.001255   -0.000181
    5    1   -3    1    5   -0.003847    0.000262
    5    1   -3    2    5    0.001111   -0.000020
    5    1   -3    3    5    0.006043   -0.002870
    5    1   -3    4    5    0.000467    0.003000
    5    1   -3    5    5    0.001295   -0.000786
    5    1   -3    6    5    0.001434   -0.000854
    5    1   -3    1    6    0.004461    0.005055
    5    1   -3    2    6   -0.000422    0.000543
    5    1   -3    3    6   -0.005410    0.004915
    5    1   -3    4    6    0.001226   -0.001201
    5    1   -3    5    6   -0.003594    0.004367
    5    1   -3    6    6    0.002998   -0.000531
    6   -2   -2    1    1    0.041230    0.000807
    6   -2   -2    2    1    0.000452    0.008970
    6   -2   -2    3    1   -0.006411   -0.000346
    6   -2   -2    4    1   -0.000069    0.000480
    6   -2   -2    5    1   -0.002504   -0.005612
    6   -2   -2    6    1    0.003581    0.003688
    6   -2   -2    1    2    0.000089   -0.010218
    6   -2   -2    2    2   -0.009137    0.000088
    6   -2   -2    3    2   -0.002545   -0.000535
    6   -2   -2    4    2   -0.002497   -0.002535
    6   -2   -2    5    2    0.000242   -0.001856
    6   -2   -2    6    2   -0.003106    0.000178
    6   -2   -2    1    3   -0.005780   -0.000313
    6   -2   -2    2    3   -0.001517    0.000930
    6   -2   -2    3    3    0.007276   -0.000685
    6   -2   -2    4    3   -0.001272    0.008909
    6   -2   -2    5    3   -0.002213   -0.001428
    6   -2   -2    6    3    0.000039    0.002124
    6   -2   -2    1    4   -0.006127    0.001105
    6   -2   -2    2    4   -0.002705    0.001481
    6   -2   -2    3    4   -0.000694   -0.008730
    6   -2   -2    4    4    0.001777   -0.003086
    6   -2   -2    5    4    0.001315   -0.000201
    6   -2   -2    6    4    0.000937   -0.001851
    6   -2   -2    1    5   -0.003540    0.003474
    6   -2   -2    2    5    0.000162    0.001328
    6   -2   -2    3    5   -0.002209   -0.001445
    6   -2   -2    4    5    0.000808    0.000975
    6   -2   -2    5    5   -0.004367   -0.000549
    6   -2   -2    6    5    0.000355   -0.005297
    6   -2   -2    1    6    0.004840   -0.004261
    6   -2   -2    2    6   -0.002353    0.001899
    6   -2   -2    3    6    0.001006   -0.000660
    6   -2   -2    4    6    0.000733    0.000648
    6   -2   -2    5    6    0.003198    0.004619
    6   -2   -2    6    6    0.001717    0.003425
