 vasp.5.4.4.18Apr17-6-g9f103f2a35 (build Dec 29 2022 11:55:37) complex          
  
 executed on             LinuxIFC date 2024.05.22  19:36:10
 running on   56 total cores
 distrk:  each k-point on   56 cores,    1 groups
 distr:  one band on NCORES_PER_BAND=   1 cores,   56 groups


--------------------------------------------------------------------------------------------------------


 INCAR:
 POTCAR:    PAW_PBE Cu 22Jun2005                  

 ----------------------------------------------------------------------------- 
|                                                                             |
|           W    W    AA    RRRRR   N    N  II  N    N   GGGG   !!!           |
|           W    W   A  A   R    R  NN   N  II  NN   N  G    G  !!!           |
|           W    W  A    A  R    R  N N  N  II  N N  N  G       !!!           |
|           W WW W  AAAAAA  RRRRR   N  N N  II  N  N N  G  GGG   !            |
|           WW  WW  A    A  R   R   N   NN  II  N   NN  G    G                |
|           W    W  A    A  R    R  N    N  II  N    N   GGGG   !!!           |
|                                                                             |
|      For optimal performance we recommend to set                            |
|        NCORE= 4 - approx SQRT( number of cores)                             |
|      NCORE specifies how many cores store one orbital (NPAR=cpu/NCORE).     |
|      This setting can  greatly improve the performance of VASP for DFT.     |
|      The default,   NCORE=1            might be grossly inefficient         |
|      on modern multi-core architectures or massively parallel machines.     |
|      Do your own testing !!!!                                               |
|      Unfortunately you need to use the default for GW and RPA calculations. |
|      (for HF NCORE is supported but not extensively tested yet)             |
|                                                                             |
 ----------------------------------------------------------------------------- 

 POTCAR:    PAW_PBE Cu 22Jun2005                  
   SHA256 =  0e71e558f37a4e8407882b4609ceaae59938afaad9ced71dfe8490308a0ab630 Cu
   COPYR  = (c) Copyright 22Jun2005 Georg Kresse                                
   COPYR  = This file is part of the software VASP. Any use, copying, and all ot
   COPYR  = If you do not have a valid VASP license, you may not use, copy or di
   VRHFIN =Cu: d10 p1                                                           
   LEXCH  = PE                                                                  
   EATOM  =  1390.9808 eV,  102.2342 Ry                                         
                                                                                
   TITEL  = PAW_PBE Cu 22Jun2005                                                
   LULTRA =        F    use ultrasoft PP ?                                      
   IUNSCR =        1    unscreen: 0-lin 1-nonlin 2-no                           
   RPACOR =    2.000    partial core radius                                     
   POMASS =   63.546; ZVAL   =   11.000    mass and valenz                      
   RCORE  =    2.300    outmost cutoff radius                                   
   RWIGS  =    2.200; RWIGS  =    1.164    wigner-seitz radius (au A)           
   ENMAX  =  295.446; ENMIN  =  221.585 eV                                      
   ICORE  =        3    local potential                                         
   LCOR   =        T    correct aug charges                                     
   LPAW   =        T    paw PP                                                  
   EAUG   =  586.980                                                            
   DEXC   =    0.000                                                            
   RMAX   =    2.344    core radius for proj-oper                               
   RAUG   =    1.300    factor for augmentation sphere                          
   RDEP   =    2.302    radius for radial grids                                 
   RDEPT  =    1.771    core radius for aug-charge                              
                                                                                
   Atomic configuration                                                         
    9 entries                                                                   
     n  l   j            E        occ.                                          
     1  0  0.50     -8850.2468   2.0000                                         
     2  0  0.50     -1062.3498   2.0000                                         
     2  1  1.50      -916.8226   6.0000                                         
     3  0  0.50      -114.6929   2.0000                                         
     3  1  1.50       -72.1325   6.0000                                         
     3  2  2.50        -5.0394  10.0000                                         
     4  0  0.50        -4.6097   1.0000                                         
     4  1  0.50        -4.0817   0.0000                                         
     4  3  2.50        -1.3606   0.0000                                         
   Description                                                                  
     l       E           TYP  RCUT    TYP  RCUT                                 
     2     -5.0393973     23  2.200                                             
     2     10.8846608     23  2.200                                             
     0     -4.6097109     23  2.200                                             
     0      8.2520465     23  2.200                                             
     1     -2.7211652     23  2.200                                             
     1     21.7055443     23  2.200                                             
     3      2.7211652     23  2.300                                             
  local pseudopotential read in
  partial core-charges read in
  partial kinetic energy density read in
  atomic valenz-charges read in
  non local Contribution for L=           2  read in
    real space projection operators read in
  non local Contribution for L=           2  read in
    real space projection operators read in
  non local Contribution for L=           0  read in
    real space projection operators read in
  non local Contribution for L=           0  read in
    real space projection operators read in
  non local Contribution for L=           1  read in
    real space projection operators read in
  non local Contribution for L=           1  read in
    real space projection operators read in
    PAW grid and wavefunctions read in
 
   number of l-projection  operators is LMAX  =           6
   number of lm-projection operators is LMMAX =          18
 
  PAW_PBE Cu 22Jun2005                  :
 energy of atom  1       EATOM=-1390.9808
 kinetic energy error for atom=    0.0422 (will be added to EATOM!!)
 
 
 POSCAR: Cu  spacegroup                          
  positions in direct lattice
  velocities in cartesian coordinates
  No initial velocities read in
 exchange correlation table for  LEXCH =        8
   RHO(1)=    0.500       N(1)  =     2000
   RHO(2)=  100.500       N(2)  =     4000
 


--------------------------------------------------------------------------------------------------------


 ion  position               nearest neighbor table
   1  0.000  0.000  0.000-
 
  LATTYP: Found a face centered cubic cell.
 ALAT       =     3.6150000000
  
  Lattice vectors:
  
 A1 = (   0.0000000000,   1.8075000000,   1.8075000000)
 A2 = (   1.8075000000,   0.0000000000,   1.8075000000)
 A3 = (   1.8075000000,   1.8075000000,   0.0000000000)


Analysis of symmetry for initial positions (statically):
=====================================================================
 Subroutine PRICEL returns:
 Original cell was already a primitive cell.
 

 Routine SETGRP: Setting up the symmetry group for a 
 face centered cubic supercell.


 Subroutine GETGRP returns: Found 48 space group operations
 (whereof 48 operations were pure point group operations)
 out of a pool of 48 trial point group operations.


The static configuration has the point symmetry O_h .


Analysis of symmetry for dynamics (positions and initial velocities):
=====================================================================
 Subroutine PRICEL returns:
 Original cell was already a primitive cell.
 

 Routine SETGRP: Setting up the symmetry group for a 
 face centered cubic supercell.


 Subroutine GETGRP returns: Found 48 space group operations
 (whereof 48 operations were pure point group operations)
 out of a pool of 48 trial point group operations.


The dynamic configuration has the point symmetry O_h .


 Subroutine INISYM returns: Found 48 space group operations
 (whereof 48 operations are pure point group operations),
 and found     1 'primitive' translations

 
 
 KPOINTS: K-Spacing Value to Generate K-Mesh: 0.03

Automatic generation of k-mesh.
Space group operators:
 irot       det(A)        alpha          n_x          n_y          n_z        tau_x        tau_y        tau_z
    1     1.000000     0.000000     1.000000     0.000000     0.000000     0.000000     0.000000     0.000000
    2    -1.000000     0.000000     1.000000     0.000000     0.000000     0.000000     0.000000     0.000000
    3     1.000000   120.000000    -0.577350    -0.577350    -0.577350     0.000000     0.000000     0.000000
    4    -1.000000   120.000000    -0.577350    -0.577350    -0.577350     0.000000     0.000000     0.000000
    5     1.000000   120.000000     0.577350     0.577350     0.577350     0.000000     0.000000     0.000000
    6    -1.000000   120.000000     0.577350     0.577350     0.577350     0.000000     0.000000     0.000000
    7     1.000000    90.000000     0.000000     0.000000    -1.000000     0.000000     0.000000     0.000000
    8    -1.000000    90.000000     0.000000     0.000000    -1.000000     0.000000     0.000000     0.000000
    9     1.000000   180.000000     0.000000     0.707107     0.707107     0.000000     0.000000     0.000000
   10    -1.000000   180.000000     0.000000     0.707107     0.707107     0.000000     0.000000     0.000000
   11     1.000000    90.000000     0.000000     1.000000     0.000000     0.000000     0.000000     0.000000
   12    -1.000000    90.000000     0.000000     1.000000     0.000000     0.000000     0.000000     0.000000
   13     1.000000   180.000000     0.000000     0.000000     1.000000     0.000000     0.000000     0.000000
   14    -1.000000   180.000000     0.000000     0.000000     1.000000     0.000000     0.000000     0.000000
   15     1.000000   120.000000    -0.577350     0.577350     0.577350     0.000000     0.000000     0.000000
   16    -1.000000   120.000000    -0.577350     0.577350     0.577350     0.000000     0.000000     0.000000
   17     1.000000   120.000000    -0.577350     0.577350    -0.577350     0.000000     0.000000     0.000000
   18    -1.000000   120.000000    -0.577350     0.577350    -0.577350     0.000000     0.000000     0.000000
   19     1.000000    90.000000     0.000000     0.000000     1.000000     0.000000     0.000000     0.000000
   20    -1.000000    90.000000     0.000000     0.000000     1.000000     0.000000     0.000000     0.000000
   21     1.000000    90.000000    -1.000000     0.000000     0.000000     0.000000     0.000000     0.000000
   22    -1.000000    90.000000    -1.000000     0.000000     0.000000     0.000000     0.000000     0.000000
   23     1.000000   180.000000     0.707107     0.000000     0.707107     0.000000     0.000000     0.000000
   24    -1.000000   180.000000     0.707107     0.000000     0.707107     0.000000     0.000000     0.000000
   25     1.000000   120.000000     0.577350    -0.577350     0.577350     0.000000     0.000000     0.000000
   26    -1.000000   120.000000     0.577350    -0.577350     0.577350     0.000000     0.000000     0.000000
   27     1.000000   120.000000    -0.577350    -0.577350     0.577350     0.000000     0.000000     0.000000
   28    -1.000000   120.000000    -0.577350    -0.577350     0.577350     0.000000     0.000000     0.000000
   29     1.000000   180.000000     1.000000     0.000000     0.000000     0.000000     0.000000     0.000000
   30    -1.000000   180.000000     1.000000     0.000000     0.000000     0.000000     0.000000     0.000000
   31     1.000000    90.000000     0.000000    -1.000000     0.000000     0.000000     0.000000     0.000000
   32    -1.000000    90.000000     0.000000    -1.000000     0.000000     0.000000     0.000000     0.000000
   33     1.000000   180.000000     0.707107     0.707107     0.000000     0.000000     0.000000     0.000000
   34    -1.000000   180.000000     0.707107     0.707107     0.000000     0.000000     0.000000     0.000000
   35     1.000000    90.000000     1.000000     0.000000     0.000000     0.000000     0.000000     0.000000
   36    -1.000000    90.000000     1.000000     0.000000     0.000000     0.000000     0.000000     0.000000
   37     1.000000   120.000000     0.577350    -0.577350    -0.577350     0.000000     0.000000     0.000000
   38    -1.000000   120.000000     0.577350    -0.577350    -0.577350     0.000000     0.000000     0.000000
   39     1.000000   180.000000     0.000000     1.000000     0.000000     0.000000     0.000000     0.000000
   40    -1.000000   180.000000     0.000000     1.000000     0.000000     0.000000     0.000000     0.000000
   41     1.000000   120.000000     0.577350     0.577350    -0.577350     0.000000     0.000000     0.000000
   42    -1.000000   120.000000     0.577350     0.577350    -0.577350     0.000000     0.000000     0.000000
   43     1.000000   180.000000     0.000000    -0.707107     0.707107     0.000000     0.000000     0.000000
   44    -1.000000   180.000000     0.000000    -0.707107     0.707107     0.000000     0.000000     0.000000
   45     1.000000   180.000000     0.707107    -0.707107     0.000000     0.000000     0.000000     0.000000
   46    -1.000000   180.000000     0.707107    -0.707107     0.000000     0.000000     0.000000     0.000000
   47     1.000000   180.000000     0.707107     0.000000    -0.707107     0.000000     0.000000     0.000000
   48    -1.000000   180.000000     0.707107     0.000000    -0.707107     0.000000     0.000000     0.000000
 
 Subroutine IBZKPT returns following result:
 ===========================================
 
 Found     29 irreducible k-points:
 
 Following reciprocal coordinates:
            Coordinates               Weight
  0.000000  0.000000  0.000000      1.000000
  0.125000  0.000000  0.000000      8.000000
  0.250000  0.000000  0.000000      8.000000
  0.375000  0.000000  0.000000      8.000000
  0.500000  0.000000  0.000000      4.000000
  0.125000  0.125000  0.000000      6.000000
  0.250000  0.125000  0.000000     24.000000
  0.375000  0.125000  0.000000     24.000000
  0.500000  0.125000  0.000000     24.000000
 -0.375000  0.125000  0.000000     24.000000
 -0.250000  0.125000  0.000000     24.000000
 -0.125000  0.125000  0.000000     12.000000
  0.250000  0.250000  0.000000      6.000000
  0.375000  0.250000  0.000000     24.000000
  0.500000  0.250000  0.000000     24.000000
 -0.375000  0.250000  0.000000     24.000000
 -0.250000  0.250000  0.000000     12.000000
  0.375000  0.375000  0.000000      6.000000
  0.500000  0.375000  0.000000     24.000000
 -0.375000  0.375000  0.000000     12.000000
  0.500000  0.500000  0.000000      3.000000
  0.375000  0.250000  0.125000     24.000000
  0.500000  0.250000  0.125000     48.000000
 -0.375000  0.250000  0.125000     24.000000
  0.500000  0.375000  0.125000     24.000000
 -0.375000  0.375000  0.125000     48.000000
 -0.250000  0.375000  0.125000     24.000000
 -0.375000  0.500000  0.125000     12.000000
 -0.250000  0.500000  0.250000      6.000000
 
 Following cartesian coordinates:
            Coordinates               Weight
  0.000000  0.000000  0.000000      1.000000
 -0.034578  0.034578  0.034578      8.000000
 -0.069156  0.069156  0.069156      8.000000
 -0.103734  0.103734  0.103734      8.000000
 -0.138313  0.138313  0.138313      4.000000
  0.000000  0.000000  0.069156      6.000000
 -0.034578  0.034578  0.103734     24.000000
 -0.069156  0.069156  0.138313     24.000000
 -0.103734  0.103734  0.172891     24.000000
  0.138313 -0.138313 -0.069156     24.000000
  0.103734 -0.103734 -0.034578     24.000000
  0.069156 -0.069156  0.000000     12.000000
  0.000000  0.000000  0.138313      6.000000
 -0.034578  0.034578  0.172891     24.000000
 -0.069156  0.069156  0.207469     24.000000
  0.172891 -0.172891 -0.034578     24.000000
  0.138313 -0.138313  0.000000     12.000000
  0.000000  0.000000  0.207469      6.000000
 -0.034578  0.034578  0.242047     24.000000
  0.207469 -0.207469  0.000000     12.000000
  0.000000  0.000000  0.276625      3.000000
  0.000000  0.069156  0.138313     24.000000
 -0.034578  0.103734  0.172891     48.000000
  0.207469 -0.138313 -0.069156     24.000000
  0.000000  0.069156  0.207469     24.000000
  0.242047 -0.172891 -0.034578     48.000000
  0.207469 -0.138313  0.000000     24.000000
  0.276625 -0.207469  0.000000     12.000000
  0.276625 -0.138313  0.000000      6.000000
 


--------------------------------------------------------------------------------------------------------




 Dimension of arrays:
   k-points           NKPTS =     29   k-points in BZ     NKDIM =     29   number of bands    NBANDS=     56
   number of dos      NEDOS =    301   number of ions     NIONS =      1
   non local maximal  LDIM  =      6   non local SUM 2l+1 LMDIM =     18
   total plane-waves  NPLWV =   2744
   max r-space proj   IRMAX =      1   max aug-charges    IRDMAX=   6929
   dimension x,y,z NGX =    14 NGY =   14 NGZ =   14
   dimension x,y,z NGXF=    28 NGYF=   28 NGZF=   28
   support grid    NGXF=    28 NGYF=   28 NGZF=   28
   ions per type =               1
   NGX,Y,Z   is equivalent  to a cutoff of   9.11,  9.11,  9.11 a.u.
   NGXF,Y,Z  is equivalent  to a cutoff of  18.21, 18.21, 18.21 a.u.

 SYSTEM =  Cu metal                                
 POSCAR =  Cu  spacegroup                          

 Startparameter for this run:
   NWRITE =      2    write-flag & timer
   PREC   = accura    normal or accurate (medium, high low for compatibility)
   ISTART =      0    job   : 0-new  1-cont  2-samecut
   ICHARG =      2    charge: 1-file 2-atom 10-const
   ISPIN  =      1    spin polarized calculation?
   LNONCOLLINEAR =      F non collinear calculations
   LSORBIT =      F    spin-orbit coupling
   INIWAV =      1    electr: 0-lowe 1-rand  2-diag
   LASPH  =      F    aspherical Exc in radial PAW
   METAGGA=      F    non-selfconsistent MetaGGA calc.

 Electronic Relaxation 1
   ENCUT  =  300.0 eV  22.05 Ry    4.70 a.u.   3.61  3.61  3.61*2*pi/ulx,y,z
   ENINI  =  300.0     initial cutoff
   ENAUG  =  587.0 eV  augmentation charge cutoff
   NELM   =     60;   NELMIN=  2; NELMDL= -5     # of ELM steps 
   EDIFF  = 0.1E-07   stopping-criterion for ELM
   LREAL  =      F    real-space projection
   NLSPLINE    = F    spline interpolate recip. space projectors
   LCOMPAT=      F    compatible to vasp.4.4
   GGA_COMPAT  = T    GGA compatible to vasp.4.4-vasp.4.6
   LMAXPAW     = -100 max onsite density
   LMAXMIX     =    2 max onsite mixed and CHGCAR
   VOSKOWN=      0    Vosko Wilk Nusair interpolation
   ROPT   =    0.00000
 Ionic relaxation
   EDIFFG = 0.1E-06   stopping-criterion for IOM
   NSW    =      0    number of steps for IOM
   NBLOCK =      1;   KBLOCK =      1    inner block; outer block 
   IBRION =     -1    ionic relax: 0-MD 1-quasi-New 2-CG
   NFREE  =      0    steps in history (QN), initial steepest desc. (CG)
   ISIF   =      2    stress and relaxation
   IWAVPR =     10    prediction:  0-non 1-charg 2-wave 3-comb
   ISYM   =      2    0-nonsym 1-usesym 2-fastsym
   LCORR  =      T    Harris-Foulkes like correction to forces

   POTIM  = 0.5000    time-step for ionic-motion
   TEIN   =    0.0    initial temperature
   TEBEG  =    0.0;   TEEND  =   0.0 temperature during run
   SMASS  =  -3.00    Nose mass-parameter (am)
   estimated Nose-frequenzy (Omega)   =  0.10E-29 period in steps =****** mass=  -0.149E-27a.u.
   SCALEE = 1.0000    scale energy and forces
   NPACO  =    256;   APACO  = 16.0  distance and # of slots for P.C.
   PSTRESS=    0.0 pullay stress

  Mass of Ions in am
   POMASS =  63.55
  Ionic Valenz
   ZVAL   =  11.00
  Atomic Wigner-Seitz radii
   RWIGS  =  -1.00
  virtual crystal weights 
   VCA    =   1.00
   NELECT =      11.0000    total number of electrons
   NUPDOWN=      -1.0000    fix difference up-down

 DOS related values:
   EMIN   =  10.00;   EMAX   =-10.00  energy-range for DOS
   EFERMI =   0.00
   ISMEAR =     0;   SIGMA  =   0.05  broadening in eV -4-tet -1-fermi 0-gaus

 Electronic relaxation 2 (details)
   IALGO  =     38    algorithm
   LDIAG  =      T    sub-space diagonalisation (order eigenvalues)
   LSUBROT=      F    optimize rotation matrix (better conditioning)
   TURBO    =      0    0=normal 1=particle mesh
   IRESTART =      0    0=no restart 2=restart with 2 vectors
   NREBOOT  =      0    no. of reboots
   NMIN     =      0    reboot dimension
   EREF     =   0.00    reference energy to select bands
   IMIX   =      4    mixing-type and parameters
     AMIX     =   0.40;   BMIX     =  1.00
     AMIX_MAG =   1.60;   BMIX_MAG =  1.00
     AMIN     =   0.10
     WC   =   100.;   INIMIX=   1;  MIXPRE=   1;  MAXMIX= -45

 Intra band minimization:
   WEIMIN = 0.0000     energy-eigenvalue tresh-hold
   EBREAK =  0.45E-10  absolut break condition
   DEPER  =   0.30     relativ break condition  

   TIME   =   0.40     timestep for ELM

  volume/ion in A,a.u.               =      11.81        79.70
  Fermi-wavevector in a.u.,A,eV,Ry     =   1.598763  3.021224 34.777078  2.556043
  Thomas-Fermi vector in A             =   2.696162
 
 Write flags
   LWAVE        =      T    write WAVECAR
   LDOWNSAMPLE  =      F    k-point downsampling of WAVECAR
   LCHARG       =      T    write CHGCAR
   LVTOT        =      F    write LOCPOT, total local potential
   LVHAR        =      F    write LOCPOT, Hartree potential only
   LELF         =      F    write electronic localiz. function (ELF)
   LORBIT       =      0    0 simple, 1 ext, 2 COOP (PROOUT), +10 PAW based schemes


 Dipole corrections
   LMONO  =      F    monopole corrections only (constant potential shift)
   LDIPOL =      F    correct potential (dipole corrections)
   IDIPOL =      0    1-x, 2-y, 3-z, 4-all directions 
   EPSILON=  1.0000000 bulk dielectric constant

 Exchange correlation treatment:
   GGA     =    --    GGA type
   LEXCH   =     8    internal setting for exchange type
   VOSKOWN=      0    Vosko Wilk Nusair interpolation
   LHFCALC =     F    Hartree Fock is set to
   LHFONE  =     F    Hartree Fock one center treatment
   AEXX    =    0.0000 exact exchange contribution

 Linear response parameters
   LEPSILON=     F    determine dielectric tensor
   LRPA    =     F    only Hartree local field effects (RPA)
   LNABLA  =     F    use nabla operator in PAW spheres
   LVEL    =     F    velocity operator in full k-point grid
   LINTERFAST=   F  fast interpolation
   KINTER  =     0    interpolate to denser k-point grid
   CSHIFT  =0.1000    complex shift for real part using Kramers Kronig
   OMEGAMAX=  -1.0    maximum frequency
   DEG_THRESHOLD= 0.2000000E-02 threshold for treating states as degnerate
   RTIME   =   -0.100 relaxation time in fs
  (WPLASMAI=    0.000 imaginary part of plasma frequency in eV, 0.658/RTIME)
   DFIELD  = 0.0000000 0.0000000 0.0000000 field for delta impulse in time
 
 Orbital magnetization related:
   ORBITALMAG=     F  switch on orbital magnetization
   LCHIMAG   =     F  perturbation theory with respect to B field
   DQ        =  0.001000  dq finite difference perturbation B field
   LLRAUG    =     F  two centre corrections for induced B field



--------------------------------------------------------------------------------------------------------


 Static calculation
 charge density and potential will be updated during run
 non-spin polarized calculation
 Variant of blocked Davidson
 Davidson routine will perform the subspace rotation
 perform sub-space diagonalisation
    after iterative eigenvector-optimisation
 modified Broyden-mixing scheme, WC =      100.0
 initial mixing is a Kerker type mixing with AMIX =  0.4000 and BMIX =      1.0000
 Hartree-type preconditioning will be used
 using additional bands           50
 reciprocal scheme for non local part
 use partial core corrections
 calculate Harris-corrections to forces 
   (improved forces if not selfconsistent)
 use gradient corrections 
 use of overlap-Matrix (Vanderbilt PP)
 Gauss-broadening in eV      SIGMA  =   0.05


--------------------------------------------------------------------------------------------------------


  energy-cutoff  :      300.00
  volume of cell :       11.81
      direct lattice vectors                 reciprocal lattice vectors
     0.000000000  1.807500000  1.807500000    -0.276625173  0.276625173  0.276625173
     1.807500000  0.000000000  1.807500000     0.276625173 -0.276625173  0.276625173
     1.807500000  1.807500000  0.000000000     0.276625173  0.276625173 -0.276625173

  length of vectors
     2.556191014  2.556191014  2.556191014     0.479128854  0.479128854  0.479128854


 
 k-points in units of 2pi/SCALE and weight: K-Spacing Value to Generate K-Mesh: 0.03
   0.00000000  0.00000000  0.00000000       0.002
  -0.03457815  0.03457815  0.03457815       0.016
  -0.06915629  0.06915629  0.06915629       0.016
  -0.10373444  0.10373444  0.10373444       0.016
  -0.13831259  0.13831259  0.13831259       0.008
   0.00000000  0.00000000  0.06915629       0.012
  -0.03457815  0.03457815  0.10373444       0.047
  -0.06915629  0.06915629  0.13831259       0.047
  -0.10373444  0.10373444  0.17289073       0.047
   0.13831259 -0.13831259 -0.06915629       0.047
   0.10373444 -0.10373444 -0.03457815       0.047
   0.06915629 -0.06915629  0.00000000       0.023
   0.00000000  0.00000000  0.13831259       0.012
  -0.03457815  0.03457815  0.17289073       0.047
  -0.06915629  0.06915629  0.20746888       0.047
   0.17289073 -0.17289073 -0.03457815       0.047
   0.13831259 -0.13831259  0.00000000       0.023
   0.00000000  0.00000000  0.20746888       0.012
  -0.03457815  0.03457815  0.24204703       0.047
   0.20746888 -0.20746888  0.00000000       0.023
   0.00000000  0.00000000  0.27662517       0.006
   0.00000000  0.06915629  0.13831259       0.047
  -0.03457815  0.10373444  0.17289073       0.094
   0.20746888 -0.13831259 -0.06915629       0.047
   0.00000000  0.06915629  0.20746888       0.047
   0.24204703 -0.17289073 -0.03457815       0.094
   0.20746888 -0.13831259  0.00000000       0.047
   0.27662517 -0.20746888  0.00000000       0.023
   0.27662517 -0.13831259  0.00000000       0.012
 
 k-points in reciprocal lattice and weights: K-Spacing Value to Generate K-Mesh: 0.03
   0.00000000  0.00000000  0.00000000       0.002
   0.12500000  0.00000000  0.00000000       0.016
   0.25000000  0.00000000  0.00000000       0.016
   0.37500000  0.00000000  0.00000000       0.016
   0.50000000  0.00000000  0.00000000       0.008
   0.12500000  0.12500000  0.00000000       0.012
   0.25000000  0.12500000  0.00000000       0.047
   0.37500000  0.12500000  0.00000000       0.047
   0.50000000  0.12500000  0.00000000       0.047
  -0.37500000  0.12500000  0.00000000       0.047
  -0.25000000  0.12500000  0.00000000       0.047
  -0.12500000  0.12500000  0.00000000       0.023
   0.25000000  0.25000000  0.00000000       0.012
   0.37500000  0.25000000  0.00000000       0.047
   0.50000000  0.25000000  0.00000000       0.047
  -0.37500000  0.25000000  0.00000000       0.047
  -0.25000000  0.25000000  0.00000000       0.023
   0.37500000  0.37500000  0.00000000       0.012
   0.50000000  0.37500000  0.00000000       0.047
  -0.37500000  0.37500000  0.00000000       0.023
   0.50000000  0.50000000  0.00000000       0.006
   0.37500000  0.25000000  0.12500000       0.047
   0.50000000  0.25000000  0.12500000       0.094
  -0.37500000  0.25000000  0.12500000       0.047
   0.50000000  0.37500000  0.12500000       0.047
  -0.37500000  0.37500000  0.12500000       0.094
  -0.25000000  0.37500000  0.12500000       0.047
  -0.37500000  0.50000000  0.12500000       0.023
  -0.25000000  0.50000000  0.25000000       0.012
 
 position of ions in fractional coordinates (direct lattice) 
   0.00000000  0.00000000  0.00000000
 
 position of ions in cartesian coordinates  (Angst):
   0.00000000  0.00000000  0.00000000
 


--------------------------------------------------------------------------------------------------------


 k-point  1 :   0.0000 0.0000 0.0000  plane waves:     137
 k-point  2 :   0.1250 0.0000 0.0000  plane waves:     147
 k-point  3 :   0.2500 0.0000 0.0000  plane waves:     144
 k-point  4 :   0.3750 0.0000 0.0000  plane waves:     144
 k-point  5 :   0.5000 0.0000 0.0000  plane waves:     138
 k-point  6 :   0.1250 0.1250 0.0000  plane waves:     145
 k-point  7 :   0.2500 0.1250 0.0000  plane waves:     140
 k-point  8 :   0.3750 0.1250 0.0000  plane waves:     142
 k-point  9 :   0.5000 0.1250 0.0000  plane waves:     138
 k-point 10 :  -0.3750 0.1250 0.0000  plane waves:     141
 k-point 11 :  -0.2500 0.1250 0.0000  plane waves:     142
 k-point 12 :  -0.1250 0.1250 0.0000  plane waves:     141
 k-point 13 :   0.2500 0.2500 0.0000  plane waves:     133
 k-point 14 :   0.3750 0.2500 0.0000  plane waves:     139
 k-point 15 :   0.5000 0.2500 0.0000  plane waves:     136
 k-point 16 :  -0.3750 0.2500 0.0000  plane waves:     137
 k-point 17 :  -0.2500 0.2500 0.0000  plane waves:     138
 k-point 18 :   0.3750 0.3750 0.0000  plane waves:     137
 k-point 19 :   0.5000 0.3750 0.0000  plane waves:     137
 k-point 20 :  -0.3750 0.3750 0.0000  plane waves:     134
 k-point 21 :   0.5000 0.5000 0.0000  plane waves:     150
 k-point 22 :   0.3750 0.2500 0.1250  plane waves:     143
 k-point 23 :   0.5000 0.2500 0.1250  plane waves:     141
 k-point 24 :  -0.3750 0.2500 0.1250  plane waves:     142
 k-point 25 :   0.5000 0.3750 0.1250  plane waves:     137
 k-point 26 :  -0.3750 0.3750 0.1250  plane waves:     138
 k-point 27 :  -0.2500 0.3750 0.1250  plane waves:     138
 k-point 28 :  -0.3750 0.5000 0.1250  plane waves:     136
 k-point 29 :  -0.2500 0.5000 0.2500  plane waves:     144

 maximum and minimum number of plane-waves per node :       150      133

 maximum number of plane-waves:       150
 maximum index in each direction: 
   IXMAX=    3   IYMAX=    3   IZMAX=    3
   IXMIN=   -4   IYMIN=   -4   IZMIN=   -3


 serial   3D FFT for wavefunctions
 parallel 3D FFT for charge:
    minimum data exchange during FFTs selected (reduces bandwidth)


 total amount of memory used by VASP MPI-rank0    31022. kBytes
=======================================================================

   base      :      30000. kBytes
   nonl-proj :        704. kBytes
   fftplans  :         48. kBytes
   grid      :        152. kBytes
   one-center:         15. kBytes
   wavefun   :        103. kBytes
 
     INWAV:  cpu time    0.0000: real time    0.0000
 Broyden mixing: mesh for mixing (old mesh)
   NGX =  7   NGY =  7   NGZ =  7
  (NGX  = 28   NGY  = 28   NGZ  = 28)
  gives a total of    343 points

 initial charge density was supplied:
 charge density of overlapping atoms calculated
 number of electron      11.0000000 magnetization 
 keeping initial charge density in first step


--------------------------------------------------------------------------------------------------------


 Maximum index for augmentation-charges          379 (set IRDMAX)


--------------------------------------------------------------------------------------------------------


 First call to EWALD:  gamma=   0.778
 Maximum number of real-space cells 3x 3x 3
 Maximum number of reciprocal cells 3x 3x 3

    FEWALD:  cpu time    0.0062: real time    0.0062


--------------------------------------- Iteration      1(   1)  ---------------------------------------


    POTLOK:  cpu time    0.4519: real time    0.4580
    SETDIJ:  cpu time    0.0999: real time    0.1000
     EDDAV:  cpu time    5.9213: real time    6.2350
       DOS:  cpu time    0.1851: real time    0.1982
    --------------------------------------------
      LOOP:  cpu time    6.6582: real time    6.9912

 eigenvalue-minimisations  :  3248
 total energy-change (2. order) :-0.1658821E+01  (-0.4380605E+03)
 number of electron      11.0000000 magnetization 
 augmentation part       11.0000000 magnetization 

 Free energy of the ion-electron system (eV)
  ---------------------------------------------------
  alpha Z        PSCENC =        61.92233289
  Ewald energy   TEWEN  =     -1104.91640438
  -Hartree energ DENC   =      -361.90107241
  -exchange      EXHF   =         0.00000000
  -V(xc)+E(xc)   XCENC  =        45.78510176
  PAW double counting   =      1228.20665988    -1334.04846713
  entropy T*S    EENTRO =        -0.00267025
  eigenvalues    EBANDS =        72.35711948
  atomic energy  EATOM  =      1390.93857890
  Solvation  Ediel_sol  =         0.00000000
  ---------------------------------------------------
  free energy    TOTEN  =        -1.65882127 eV

  energy without entropy =       -1.65615102  energy(sigma->0) =       -1.65748614


--------------------------------------------------------------------------------------------------------




--------------------------------------- Iteration      1(   2)  ---------------------------------------


     EDDAV:  cpu time    1.2939: real time    1.6049
       DOS:  cpu time    0.0411: real time    0.0411
    --------------------------------------------
      LOOP:  cpu time    1.3350: real time    1.6460

 eigenvalue-minimisations  :  3248
 total energy-change (2. order) :-0.2937323E+01  (-0.2909011E+01)
 number of electron      11.0000000 magnetization 
 augmentation part       11.0000000 magnetization 

 Free energy of the ion-electron system (eV)
  ---------------------------------------------------
  alpha Z        PSCENC =        61.92233289
  Ewald energy   TEWEN  =     -1104.91640438
  -Hartree energ DENC   =      -361.90107241
  -exchange      EXHF   =         0.00000000
  -V(xc)+E(xc)   XCENC  =        45.78510176
  PAW double counting   =      1228.20665988    -1334.04846713
  entropy T*S    EENTRO =        -0.00318292
  eigenvalues    EBANDS =        69.42030923
  atomic energy  EATOM  =      1390.93857890
  Solvation  Ediel_sol  =         0.00000000
  ---------------------------------------------------
  free energy    TOTEN  =        -4.59614419 eV

  energy without entropy =       -4.59296127  energy(sigma->0) =       -4.59455273


--------------------------------------------------------------------------------------------------------




--------------------------------------- Iteration      1(   3)  ---------------------------------------


     EDDAV:  cpu time    5.1187: real time    5.4639
       DOS:  cpu time    0.0221: real time    0.0221
    --------------------------------------------
      LOOP:  cpu time    5.1407: real time    5.4860

 eigenvalue-minimisations  :  3248
 total energy-change (2. order) :-0.1628405E-02  (-0.1628405E-02)
 number of electron      11.0000000 magnetization 
 augmentation part       11.0000000 magnetization 

 Free energy of the ion-electron system (eV)
  ---------------------------------------------------
  alpha Z        PSCENC =        61.92233289
  Ewald energy   TEWEN  =     -1104.91640438
  -Hartree energ DENC   =      -361.90107241
  -exchange      EXHF   =         0.00000000
  -V(xc)+E(xc)   XCENC  =        45.78510176
  PAW double counting   =      1228.20665988    -1334.04846713
  entropy T*S    EENTRO =        -0.00318238
  eigenvalues    EBANDS =        69.41868028
  atomic energy  EATOM  =      1390.93857890
  Solvation  Ediel_sol  =         0.00000000
  ---------------------------------------------------
  free energy    TOTEN  =        -4.59777260 eV

  energy without entropy =       -4.59459022  energy(sigma->0) =       -4.59618141


--------------------------------------------------------------------------------------------------------




--------------------------------------- Iteration      1(   4)  ---------------------------------------


     EDDAV:  cpu time    3.4477: real time    3.4477
       DOS:  cpu time    0.0027: real time    0.0027
    --------------------------------------------
      LOOP:  cpu time    3.4504: real time    3.4504

 eigenvalue-minimisations  :  3248
 total energy-change (2. order) :-0.1865426E-05  (-0.1866199E-05)
 number of electron      11.0000000 magnetization 
 augmentation part       11.0000000 magnetization 

 Free energy of the ion-electron system (eV)
  ---------------------------------------------------
  alpha Z        PSCENC =        61.92233289
  Ewald energy   TEWEN  =     -1104.91640438
  -Hartree energ DENC   =      -361.90107241
  -exchange      EXHF   =         0.00000000
  -V(xc)+E(xc)   XCENC  =        45.78510176
  PAW double counting   =      1228.20665988    -1334.04846713
  entropy T*S    EENTRO =        -0.00318238
  eigenvalues    EBANDS =        69.41867841
  atomic energy  EATOM  =      1390.93857890
  Solvation  Ediel_sol  =         0.00000000
  ---------------------------------------------------
  free energy    TOTEN  =        -4.59777446 eV

  energy without entropy =       -4.59459209  energy(sigma->0) =       -4.59618327


--------------------------------------------------------------------------------------------------------




--------------------------------------- Iteration      1(   5)  ---------------------------------------


     EDDAV:  cpu time    1.6941: real time    1.8565
       DOS:  cpu time    0.0027: real time    0.0027
    CHARGE:  cpu time    0.1032: real time    0.1033
    MIXING:  cpu time    0.1556: real time    0.1690
    --------------------------------------------
      LOOP:  cpu time    1.9556: real time    2.1314

 eigenvalue-minimisations  :  3248
 total energy-change (2. order) :-0.5101356E-08  (-0.5808689E-08)
 number of electron      10.9999934 magnetization 
 augmentation part        6.4834255 magnetization 

 Broyden mixing:
  rms(total) = 0.76898E+00    rms(broyden)= 0.76884E+00
  rms(prec ) = 0.29343E+01
  weight for this iteration     100.00

 Free energy of the ion-electron system (eV)
  ---------------------------------------------------
  alpha Z        PSCENC =        61.92233289
  Ewald energy   TEWEN  =     -1104.91640438
  -Hartree energ DENC   =      -361.90107241
  -exchange      EXHF   =         0.00000000
  -V(xc)+E(xc)   XCENC  =        45.78510176
  PAW double counting   =      1228.20665988    -1334.04846713
  entropy T*S    EENTRO =        -0.00318238
  eigenvalues    EBANDS =        69.41867840
  atomic energy  EATOM  =      1390.93857890
  Solvation  Ediel_sol  =         0.00000000
  ---------------------------------------------------
  free energy    TOTEN  =        -4.59777447 eV

  energy without entropy =       -4.59459209  energy(sigma->0) =       -4.59618328


--------------------------------------------------------------------------------------------------------




--------------------------------------- Iteration      1(   6)  ---------------------------------------


    POTLOK:  cpu time    0.3861: real time    0.4510
    SETDIJ:  cpu time    0.0043: real time    0.0043
     EDDAV:  cpu time    1.2521: real time    1.2745
       DOS:  cpu time    0.0234: real time    0.0234
    CHARGE:  cpu time    0.0129: real time    0.0129
    MIXING:  cpu time    0.1359: real time    0.1360
    --------------------------------------------
      LOOP:  cpu time    1.8146: real time    1.9020

 eigenvalue-minimisations  :  3248
 total energy-change (2. order) : 0.5133670E+00  (-0.1807232E+01)
 number of electron      10.9999925 magnetization 
 augmentation part        7.3110935 magnetization 

 Broyden mixing:
  rms(total) = 0.39463E+00    rms(broyden)= 0.39448E+00
  rms(prec ) = 0.13718E+01
  weight for this iteration     100.00

 eigenvalues of (default mixing * dielectric matrix)
  average eigenvalue GAMMA=   0.6616
  0.6616

 Free energy of the ion-electron system (eV)
  ---------------------------------------------------
  alpha Z        PSCENC =        61.92233289
  Ewald energy   TEWEN  =     -1104.91640438
  -Hartree energ DENC   =      -333.88057428
  -exchange      EXHF   =         0.00000000
  -V(xc)+E(xc)   XCENC  =        44.39475474
  PAW double counting   =      1247.57044063    -1347.88013459
  entropy T*S    EENTRO =        -0.00152235
  eigenvalues    EBANDS =        37.76812097
  atomic energy  EATOM  =      1390.93857890
  Solvation  Ediel_sol  =         0.00000000
  ---------------------------------------------------
  free energy    TOTEN  =        -4.08440749 eV

  energy without entropy =       -4.08288514  energy(sigma->0) =       -4.08364632


--------------------------------------------------------------------------------------------------------




--------------------------------------- Iteration      1(   7)  ---------------------------------------


    POTLOK:  cpu time    0.3310: real time    0.3310
    SETDIJ:  cpu time    0.1550: real time    0.1550
     EDDAV:  cpu time    3.1110: real time    3.1111
       DOS:  cpu time    0.0027: real time    0.0027
    CHARGE:  cpu time    0.0013: real time    0.0013
    MIXING:  cpu time    0.0221: real time    0.0221
    --------------------------------------------
      LOOP:  cpu time    3.6230: real time    3.6232

 eigenvalue-minimisations  :  3248
 total energy-change (2. order) : 0.3773223E+00  (-0.2826938E+00)
 number of electron      10.9999928 magnetization 
 augmentation part        6.9938063 magnetization 

 Broyden mixing:
  rms(total) = 0.53804E-01    rms(broyden)= 0.53756E-01
  rms(prec ) = 0.22148E+00
  weight for this iteration     100.00

 eigenvalues of (default mixing * dielectric matrix)
  average eigenvalue GAMMA=   1.4165
  2.1938  0.6392

 Free energy of the ion-electron system (eV)
  ---------------------------------------------------
  alpha Z        PSCENC =        61.92233289
  Ewald energy   TEWEN  =     -1104.91640438
  -Hartree energ DENC   =      -342.55709671
  -exchange      EXHF   =         0.00000000
  -V(xc)+E(xc)   XCENC  =        44.84749854
  PAW double counting   =      1272.31562422    -1377.40161311
  entropy T*S    EENTRO =        -0.00151676
  eigenvalues    EBANDS =        51.14551126
  atomic energy  EATOM  =      1390.93857890
  Solvation  Ediel_sol  =         0.00000000
  ---------------------------------------------------
  free energy    TOTEN  =        -3.70708517 eV

  energy without entropy =       -3.70556841  energy(sigma->0) =       -3.70632679


--------------------------------------------------------------------------------------------------------




--------------------------------------- Iteration      1(   8)  ---------------------------------------


    POTLOK:  cpu time    0.4096: real time    0.4099
    SETDIJ:  cpu time    0.1170: real time    0.1170
     EDDAV:  cpu time    2.6644: real time    2.6644
       DOS:  cpu time    0.0027: real time    0.0027
    CHARGE:  cpu time    0.0013: real time    0.0013
    MIXING:  cpu time    0.0216: real time    0.0216
    --------------------------------------------
      LOOP:  cpu time    3.2167: real time    3.2170

 eigenvalue-minimisations  :  3248
 total energy-change (2. order) : 0.9880412E-02  (-0.3742007E-03)
 number of electron      10.9999928 magnetization 
 augmentation part        6.9858437 magnetization 

 Broyden mixing:
  rms(total) = 0.33977E-01    rms(broyden)= 0.33972E-01
  rms(prec ) = 0.13272E+00
  weight for this iteration     100.00

 eigenvalues of (default mixing * dielectric matrix)
  average eigenvalue GAMMA=   1.4358
  0.6574  1.0294  2.6205

 Free energy of the ion-electron system (eV)
  ---------------------------------------------------
  alpha Z        PSCENC =        61.92233289
  Ewald energy   TEWEN  =     -1104.91640438
  -Hartree energ DENC   =      -339.85570059
  -exchange      EXHF   =         0.00000000
  -V(xc)+E(xc)   XCENC  =        44.73552442
  PAW double counting   =      1310.96709517    -1418.63393376
  entropy T*S    EENTRO =        -0.00151676
  eigenvalues    EBANDS =        51.14681937
  atomic energy  EATOM  =      1390.93857890
  Solvation  Ediel_sol  =         0.00000000
  ---------------------------------------------------
  free energy    TOTEN  =        -3.69720476 eV

  energy without entropy =       -3.69568800  energy(sigma->0) =       -3.69644638


--------------------------------------------------------------------------------------------------------




--------------------------------------- Iteration      1(   9)  ---------------------------------------


    POTLOK:  cpu time    0.2068: real time    0.4020
    SETDIJ:  cpu time    0.0013: real time    0.0013
     EDDAV:  cpu time    4.3037: real time    4.3251
       DOS:  cpu time    0.0227: real time    0.0227
    CHARGE:  cpu time    0.0013: real time    0.0013
    MIXING:  cpu time    0.0002: real time    0.0002
    --------------------------------------------
      LOOP:  cpu time    4.5360: real time    4.7526

 eigenvalue-minimisations  :  3248
 total energy-change (2. order) : 0.2010150E-02  (-0.1560035E-02)
 number of electron      10.9999928 magnetization 
 augmentation part        7.0100314 magnetization 

 Broyden mixing:
  rms(total) = 0.36016E-02    rms(broyden)= 0.35949E-02
  rms(prec ) = 0.13074E-01
  weight for this iteration     100.00

 eigenvalues of (default mixing * dielectric matrix)
  average eigenvalue GAMMA=   1.6290
  0.6609  0.9646  2.5034  2.3870

 Free energy of the ion-electron system (eV)
  ---------------------------------------------------
  alpha Z        PSCENC =        61.92233289
  Ewald energy   TEWEN  =     -1104.91640438
  -Hartree energ DENC   =      -338.51629212
  -exchange      EXHF   =         0.00000000
  -V(xc)+E(xc)   XCENC  =        44.67337358
  PAW double counting   =      1318.76145593    -1426.68930246
  entropy T*S    EENTRO =        -0.00151676
  eigenvalues    EBANDS =        50.13257982
  atomic energy  EATOM  =      1390.93857890
  Solvation  Ediel_sol  =         0.00000000
  ---------------------------------------------------
  free energy    TOTEN  =        -3.69519461 eV

  energy without entropy =       -3.69367785  energy(sigma->0) =       -3.69443623


--------------------------------------------------------------------------------------------------------




--------------------------------------- Iteration      1(  10)  ---------------------------------------


    POTLOK:  cpu time    0.4953: real time    0.6013
    SETDIJ:  cpu time    0.0730: real time    0.1370
     EDDAV:  cpu time    1.1612: real time    2.3282
       DOS:  cpu time    0.0027: real time    0.0027
    CHARGE:  cpu time    0.0013: real time    0.0013
    MIXING:  cpu time    0.0002: real time    0.0002
    --------------------------------------------
      LOOP:  cpu time    1.7337: real time    3.0706

 eigenvalue-minimisations  :  3248
 total energy-change (2. order) : 0.4286406E-05  (-0.4150965E-05)
 number of electron      10.9999928 magnetization 
 augmentation part        7.0088044 magnetization 

 Broyden mixing:
  rms(total) = 0.12315E-02    rms(broyden)= 0.12313E-02
  rms(prec ) = 0.43212E-02
  weight for this iteration     100.00

 eigenvalues of (default mixing * dielectric matrix)
  average eigenvalue GAMMA=   1.5634
  2.6451  2.4792  0.6610  0.9716  1.0599

 Free energy of the ion-electron system (eV)
  ---------------------------------------------------
  alpha Z        PSCENC =        61.92233289
  Ewald energy   TEWEN  =     -1104.91640438
  -Hartree energ DENC   =      -338.61851394
  -exchange      EXHF   =         0.00000000
  -V(xc)+E(xc)   XCENC  =        44.67835867
  PAW double counting   =      1318.11231342    -1425.99161916
  entropy T*S    EENTRO =        -0.00151676
  eigenvalues    EBANDS =        50.18128003
  atomic energy  EATOM  =      1390.93857890
  Solvation  Ediel_sol  =         0.00000000
  ---------------------------------------------------
  free energy    TOTEN  =        -3.69519032 eV

  energy without entropy =       -3.69367356  energy(sigma->0) =       -3.69443194


--------------------------------------------------------------------------------------------------------




--------------------------------------- Iteration      1(  11)  ---------------------------------------


    POTLOK:  cpu time    0.0221: real time    0.0457
    SETDIJ:  cpu time    0.0012: real time    0.0012
     EDDAV:  cpu time    0.7596: real time    1.5317
       DOS:  cpu time    0.1111: real time    0.2121
    CHARGE:  cpu time    0.0013: real time    0.0019
    MIXING:  cpu time    0.0002: real time    0.0002
    --------------------------------------------
      LOOP:  cpu time    0.8955: real time    1.7928

 eigenvalue-minimisations  :  3248
 total energy-change (2. order) : 0.1840686E-05  (-0.5345882E-06)
 number of electron      10.9999928 magnetization 
 augmentation part        7.0083835 magnetization 

 Broyden mixing:
  rms(total) = 0.31253E-04    rms(broyden)= 0.31171E-04
  rms(prec ) = 0.10611E-03
  weight for this iteration     100.00

 eigenvalues of (default mixing * dielectric matrix)
  average eigenvalue GAMMA=   1.5293
  2.6414  2.4529  0.6611  0.9456  1.0451  1.4296

 Free energy of the ion-electron system (eV)
  ---------------------------------------------------
  alpha Z        PSCENC =        61.92233289
  Ewald energy   TEWEN  =     -1104.91640438
  -Hartree energ DENC   =      -338.68281703
  -exchange      EXHF   =         0.00000000
  -V(xc)+E(xc)   XCENC  =        44.68155261
  PAW double counting   =      1317.64872036    -1425.48280750
  entropy T*S    EENTRO =        -0.00151676
  eigenvalues    EBANDS =        50.19717244
  atomic energy  EATOM  =      1390.93857890
  Solvation  Ediel_sol  =         0.00000000
  ---------------------------------------------------
  free energy    TOTEN  =        -3.69518848 eV

  energy without entropy =       -3.69367172  energy(sigma->0) =       -3.69443010


--------------------------------------------------------------------------------------------------------




--------------------------------------- Iteration      1(  12)  ---------------------------------------


    POTLOK:  cpu time    0.1009: real time    0.1241
    SETDIJ:  cpu time    0.0012: real time    0.0012
     EDDAV:  cpu time    1.5923: real time    1.5925
       DOS:  cpu time    0.0027: real time    0.0027
    CHARGE:  cpu time    0.0013: real time    0.0013
    MIXING:  cpu time    0.0002: real time    0.0002
    --------------------------------------------
      LOOP:  cpu time    1.6986: real time    1.7221

 eigenvalue-minimisations  :  3248
 total energy-change (2. order) :-0.5613811E-07  (-0.1196934E-08)
 number of electron      10.9999928 magnetization 
 augmentation part        7.0083661 magnetization 

 Broyden mixing:
  rms(total) = 0.10468E-04    rms(broyden)= 0.10456E-04
  rms(prec ) = 0.31402E-04
  weight for this iteration     100.00

 eigenvalues of (default mixing * dielectric matrix)
  average eigenvalue GAMMA=   1.6252
  2.6136  2.6136  2.5249  0.6611  1.0483  0.9824  0.9326

 Free energy of the ion-electron system (eV)
  ---------------------------------------------------
  alpha Z        PSCENC =        61.92233289
  Ewald energy   TEWEN  =     -1104.91640438
  -Hartree energ DENC   =      -338.68300989
  -exchange      EXHF   =         0.00000000
  -V(xc)+E(xc)   XCENC  =        44.68156282
  PAW double counting   =      1317.65736846    -1425.49203336
  entropy T*S    EENTRO =        -0.00151676
  eigenvalues    EBANDS =        50.19793278
  atomic energy  EATOM  =      1390.93857890
  Solvation  Ediel_sol  =         0.00000000
  ---------------------------------------------------
  free energy    TOTEN  =        -3.69518854 eV

  energy without entropy =       -3.69367178  energy(sigma->0) =       -3.69443016


--------------------------------------------------------------------------------------------------------




--------------------------------------- Iteration      1(  13)  ---------------------------------------


    POTLOK:  cpu time    0.2474: real time    0.3127
    SETDIJ:  cpu time    0.0900: real time    0.0900
     EDDAV:  cpu time    5.3847: real time    5.4081
       DOS:  cpu time    0.0260: real time    0.0261
    CHARGE:  cpu time    0.0013: real time    0.0013
    MIXING:  cpu time    0.0002: real time    0.0002
    --------------------------------------------
      LOOP:  cpu time    5.7496: real time    5.8384

 eigenvalue-minimisations  :  3248
 total energy-change (2. order) :-0.4548951E-07  (-0.1872339E-09)
 number of electron      10.9999928 magnetization 
 augmentation part        7.0083613 magnetization 

 Broyden mixing:
  rms(total) = 0.69912E-06    rms(broyden)= 0.68451E-06
  rms(prec ) = 0.13435E-05
  weight for this iteration     100.00

 eigenvalues of (default mixing * dielectric matrix)
  average eigenvalue GAMMA=   1.5879
  2.6428  2.6428  2.5071  0.6611  0.9711  1.0024  1.0024  1.2739

 Free energy of the ion-electron system (eV)
  ---------------------------------------------------
  alpha Z        PSCENC =        61.92233289
  Ewald energy   TEWEN  =     -1104.91640438
  -Hartree energ DENC   =      -338.68323872
  -exchange      EXHF   =         0.00000000
  -V(xc)+E(xc)   XCENC  =        44.68157383
  PAW double counting   =      1317.66183345    -1425.49657159
  entropy T*S    EENTRO =        -0.00151676
  eigenvalues    EBANDS =        50.19822381
  atomic energy  EATOM  =      1390.93857890
  Solvation  Ediel_sol  =         0.00000000
  ---------------------------------------------------
  free energy    TOTEN  =        -3.69518858 eV

  energy without entropy =       -3.69367182  energy(sigma->0) =       -3.69443020


--------------------------------------------------------------------------------------------------------




--------------------------------------- Iteration      1(  14)  ---------------------------------------


    POTLOK:  cpu time    0.2460: real time    0.2463
    SETDIJ:  cpu time    0.0720: real time    0.0720
     EDDAV:  cpu time    6.5968: real time    6.6218
       DOS:  cpu time    0.0163: real time    0.0164
    --------------------------------------------
      LOOP:  cpu time    6.9311: real time    6.9565

 eigenvalue-minimisations  :  3248
 total energy-change (2. order) : 0.2791921E-08  (-0.3134324E-12)
 number of electron      10.9999928 magnetization 
 augmentation part        7.0083613 magnetization 

 Free energy of the ion-electron system (eV)
  ---------------------------------------------------
  alpha Z        PSCENC =        61.92233289
  Ewald energy   TEWEN  =     -1104.91640438
  -Hartree energ DENC   =      -338.68325965
  -exchange      EXHF   =         0.00000000
  -V(xc)+E(xc)   XCENC  =        44.68157478
  PAW double counting   =      1317.66087374    -1425.49559919
  entropy T*S    EENTRO =        -0.00151676
  eigenvalues    EBANDS =        50.19823109
  atomic energy  EATOM  =      1390.93857890
  Solvation  Ediel_sol  =         0.00000000
  ---------------------------------------------------
  free energy    TOTEN  =        -3.69518858 eV

  energy without entropy =       -3.69367182  energy(sigma->0) =       -3.69443020


--------------------------------------------------------------------------------------------------------




 average (electrostatic) potential at core
  the test charge radii are     0.9430
  (the norm of the test charge is              1.0000)
       1 -63.6866
 
 
 
 E-fermi :   7.4794     XC(G=0): -12.7237     alpha+bet :-13.4240


 k-point     1 :       0.0000    0.0000    0.0000
  band No.  band energies     occupation 
      1      -1.7661      2.00000
      2       4.5706      2.00000
      3       4.5706      2.00000
      4       4.5706      2.00000
      5       5.3995      2.00000
      6       5.3995      2.00000
      7      30.1886      0.00000
      8      32.8258      0.00000
      9      32.8258      0.00000
     10      32.8258      0.00000
     11      35.3177      0.00000
     12      35.3178      0.00000
     13      35.3178      0.00000
     14      39.0863      0.00000
     15      43.8657      0.00000
     16      43.8658      0.00000
     17      43.8658      0.00000
     18      46.4254      0.00000
     19      46.4254      0.00000
     20      60.4332      0.00000
     21      78.9737      0.00000
     22      78.9737      0.00000
     23      78.9737      0.00000
     24      87.4129      0.00000
     25      87.4129      0.00000
     26      87.4129      0.00000
     27      88.0170      0.00000
     28      88.0170      0.00000
     29      92.5204      0.00000
     30      92.5204      0.00000
     31      92.5204      0.00000
     32      97.3029      0.00000
     33     104.7348      0.00000
     34     104.7348      0.00000
     35     104.7349      0.00000
     36     110.8193      0.00000
     37     110.8215      0.00000
     38     110.8215      0.00000
     39     110.8216      0.00000
     40     111.9232      0.00000
     41     115.7397      0.00000
     42     115.7397      0.00000
     43     115.7398      0.00000
     44     116.1151      0.00000
     45     116.1151      0.00000
     46     116.1152      0.00000
     47     119.8996      0.00000
     48     119.8996      0.00000
     49     119.8997      0.00000
     50     121.5672      0.00000
     51     121.5672      0.00000
     52     128.7728      0.00000
     53     128.7728      0.00000
     54     128.7728      0.00000
     55     129.1525      0.00000
     56     129.8462      0.00000

 k-point     2 :       0.1250    0.0000    0.0000
  band No.  band energies     occupation 
      1      -1.2029      2.00000
      2       4.4594      2.00000
      3       4.6638      2.00000
      4       4.6638      2.00000
      5       5.3678      2.00000
      6       5.3678      2.00000
      7      26.3952      0.00000
      8      30.8125      0.00000
      9      31.6212      0.00000
     10      31.6213      0.00000
     11      37.1992      0.00000
     12      37.2227      0.00000
     13      37.2227      0.00000
     14      40.4410      0.00000
     15      40.4411      0.00000
     16      42.7650      0.00000
     17      45.2072      0.00000
     18      50.8549      0.00000
     19      50.8549      0.00000
     20      62.1545      0.00000
     21      74.5988      0.00000
     22      74.5988      0.00000
     23      79.3960      0.00000
     24      82.2988      0.00000
     25      86.0518      0.00000
     26      86.0518      0.00000
     27      90.1790      0.00000
     28      90.1790      0.00000
     29      94.0907      0.00000
     30      95.6886      0.00000
     31      95.6886      0.00000
     32      95.8610      0.00000
     33     103.4055      0.00000
     34     103.4056      0.00000
     35     103.7222      0.00000
     36     106.3137      0.00000
     37     106.3138      0.00000
     38     107.9716      0.00000
     39     108.9908      0.00000
     40     110.5112      0.00000
     41     110.5112      0.00000
     42     110.6526      0.00000
     43     114.2023      0.00000
     44     116.7649      0.00000
     45     117.5798      0.00000
     46     117.5798      0.00000
     47     120.7009      0.00000
     48     120.7009      0.00000
     49     122.6790      0.00000
     50     124.9260      0.00000
     51     126.2358      0.00000
     52     126.3938      0.00000
     53     126.3938      0.00000
     54     132.1304      0.00000
     55     132.1304      0.00000
     56     135.6755      0.00000

 k-point     3 :       0.2500    0.0000    0.0000
  band No.  band energies     occupation 
      1       0.3564      2.00000
      2       4.3150      2.00000
      3       4.7267      2.00000
      4       4.7267      2.00000
      5       5.4781      2.00000
      6       5.4781      2.00000
      7      20.0326      0.00000
      8      30.0620      0.00000
      9      30.4050      0.00000
     10      30.4050      0.00000
     11      36.0832      0.00000
     12      36.0832      0.00000
     13      37.2370      0.00000
     14      41.7540      0.00000
     15      41.7541      0.00000
     16      46.4580      0.00000
     17      52.4547      0.00000
     18      57.0388      0.00000
     19      57.0388      0.00000
     20      65.8609      0.00000
     21      67.1394      0.00000
     22      67.1394      0.00000
     23      75.1053      0.00000
     24      80.6504      0.00000
     25      87.0563      0.00000
     26      87.0564      0.00000
     27      89.7706      0.00000
     28      89.7706      0.00000
     29      93.2707      0.00000
     30      93.9861      0.00000
     31      94.0754      0.00000
     32      94.0754      0.00000
     33      99.8017      0.00000
     34     100.2586      0.00000
     35     100.2587      0.00000
     36     101.4474      0.00000
     37     103.4393      0.00000
     38     104.6898      0.00000
     39     104.6899      0.00000
     40     108.2215      0.00000
     41     111.0965      0.00000
     42     111.3058      0.00000
     43     111.3058      0.00000
     44     116.0060      0.00000
     45     116.0061      0.00000
     46     122.3137      0.00000
     47     124.1453      0.00000
     48     124.1453      0.00000
     49     126.3841      0.00000
     50     130.3369      0.00000
     51     130.3369      0.00000
     52     130.9057      0.00000
     53     135.2888      0.00000
     54     138.3474      0.00000
     55     138.3474      0.00000
     56     143.2488      0.00000

 k-point     4 :       0.3750    0.0000    0.0000
  band No.  band energies     occupation 
      1       2.0685      2.00000
      2       4.6069      2.00000
      3       4.6069      2.00000
      4       4.9817      2.00000
      5       5.7993      2.00000
      6       5.7993      2.00000
      7      14.4798      0.00000
      8      29.0948      0.00000
      9      29.7973      0.00000
     10      29.7974      0.00000
     11      33.6070      0.00000
     12      33.6071      0.00000
     13      37.7221      0.00000
     14      46.5259      0.00000
     15      46.5259      0.00000
     16      50.0194      0.00000
     17      59.6516      0.00000
     18      59.6516      0.00000
     19      62.2628      0.00000
     20      64.0513      0.00000
     21      64.0513      0.00000
     22      64.2430      0.00000
     23      74.5415      0.00000
     24      82.2854      0.00000
     25      82.2854      0.00000
     26      82.3175      0.00000
     27      85.2885      0.00000
     28      89.2853      0.00000
     29      89.2853      0.00000
     30      91.0476      0.00000
     31      92.9796      0.00000
     32      92.9797      0.00000
     33      93.5928      0.00000
     34      96.5928      0.00000
     35     100.0101      0.00000
     36     100.0102      0.00000
     37     101.3832      0.00000
     38     101.3833      0.00000
     39     102.2961      0.00000
     40     108.3270      0.00000
     41     112.6532      0.00000
     42     112.6532      0.00000
     43     113.1442      0.00000
     44     119.8862      0.00000
     45     119.8862      0.00000
     46     121.6470      0.00000
     47     127.2550      0.00000
     48     127.2550      0.00000
     49     130.4077      0.00000
     50     132.4505      0.00000
     51     132.4506      0.00000
     52     138.9580      0.00000
     53     141.6669      0.00000
     54     141.6670      0.00000
     55     142.7484      0.00000
     56     143.6368      0.00000

 k-point     5 :       0.5000    0.0000    0.0000
  band No.  band energies     occupation 
      1       2.5200      2.00000
      2       4.5380      2.00000
      3       4.5380      2.00000
      4       5.9621      2.00000
      5       5.9621      2.00000
      6       6.5836      2.00000
      7      11.3450      0.00000
      8      28.6748      0.00000
      9      29.6545      0.00000
     10      29.6546      0.00000
     11      32.6657      0.00000
     12      32.6658      0.00000
     13      37.9753      0.00000
     14      50.7651      0.00000
     15      50.7651      0.00000
     16      52.9199      0.00000
     17      54.6770      0.00000
     18      54.6771      0.00000
     19      60.4345      0.00000
     20      69.0365      0.00000
     21      69.0366      0.00000
     22      71.7811      0.00000
     23      74.5277      0.00000
     24      76.5772      0.00000
     25      76.5772      0.00000
     26      77.7001      0.00000
     27      83.2771      0.00000
     28      88.9765      0.00000
     29      90.2201      0.00000
     30      90.2201      0.00000
     31      92.7456      0.00000
     32      93.3874      0.00000
     33      93.3875      0.00000
     34      94.5749      0.00000
     35      99.6146      0.00000
     36      99.6147      0.00000
     37     100.1445      0.00000
     38     100.1446      0.00000
     39     102.5240      0.00000
     40     108.2406      0.00000
     41     112.0189      0.00000
     42     112.0189      0.00000
     43     117.6304      0.00000
     44     118.1340      0.00000
     45     123.8803      0.00000
     46     123.8804      0.00000
     47     127.4976      0.00000
     48     127.4977      0.00000
     49     133.6859      0.00000
     50     133.6860      0.00000
     51     134.2020      0.00000
     52     134.8580      0.00000
     53     141.8945      0.00000
     54     141.8945      0.00000
     55     149.0534      0.00000
     56     149.0535      0.00000

 k-point     6 :       0.1250    0.1250    0.0000
  band No.  band energies     occupation 
      1      -1.0171      2.00000
      2       4.3550      2.00000
      3       4.7458      2.00000
      4       4.7458      2.00000
      5       5.2083      2.00000
      6       5.4782      2.00000
      7      28.4517      0.00000
      8      28.8571      0.00000
      9      28.8571      0.00000
     10      30.5670      0.00000
     11      35.6835      0.00000
     12      38.6547      0.00000
     13      39.6121      0.00000
     14      39.6122      0.00000
     15      43.1078      0.00000
     16      45.3316      0.00000
     17      45.3316      0.00000
     18      46.7088      0.00000
     19      52.9810      0.00000
     20      63.1605      0.00000
     21      73.4140      0.00000
     22      76.4340      0.00000
     23      76.4340      0.00000
     24      81.1294      0.00000
     25      85.1075      0.00000
     26      85.1076      0.00000
     27      91.8648      0.00000
     28      92.0878      0.00000
     29      94.7757      0.00000
     30      95.0859      0.00000
     31      95.0860      0.00000
     32      95.3933      0.00000
     33     102.0937      0.00000
     34     102.0938      0.00000
     35     104.0610      0.00000
     36     104.1131      0.00000
     37     107.1771      0.00000
     38     107.1771      0.00000
     39     110.2378      0.00000
     40     110.6663      0.00000
     41     110.6663      0.00000
     42     112.9175      0.00000
     43     114.0514      0.00000
     44     117.2302      0.00000
     45     117.2641      0.00000
     46     120.5755      0.00000
     47     120.5755      0.00000
     48     120.5947      0.00000
     49     120.7070      0.00000
     50     122.9319      0.00000
     51     122.9319      0.00000
     52     125.8229      0.00000
     53     128.3403      0.00000
     54     128.3403      0.00000
     55     134.6288      0.00000
     56     138.5260      0.00000

 k-point     7 :       0.2500    0.1250    0.0000
  band No.  band energies     occupation 
      1       0.2120      2.00000
      2       4.1421      2.00000
      3       4.7815      2.00000
      4       4.8929      2.00000
      5       5.2758      2.00000
      6       5.5965      2.00000
      7      22.4790      0.00000
      8      27.0645      0.00000
      9      28.3079      0.00000
     10      30.8189      0.00000
     11      33.8628      0.00000
     12      38.2891      0.00000
     13      40.5572      0.00000
     14      41.6951      0.00000
     15      44.6855      0.00000
     16      47.3754      0.00000
     17      49.5050      0.00000
     18      52.0171      0.00000
     19      57.3018      0.00000
     20      66.5460      0.00000
     21      66.9394      0.00000
     22      71.0265      0.00000
     23      76.3733      0.00000
     24      79.4922      0.00000
     25      81.3798      0.00000
     26      85.6781      0.00000
     27      90.4690      0.00000
     28      92.0128      0.00000
     29      92.5837      0.00000
     30      93.4203      0.00000
     31      94.4308      0.00000
     32      97.9992      0.00000
     33      98.7166      0.00000
     34      99.6078      0.00000
     35     101.6383      0.00000
     36     102.8037      0.00000
     37     103.6418      0.00000
     38     106.1674      0.00000
     39     107.9114      0.00000
     40     110.6368      0.00000
     41     111.0238      0.00000
     42     111.2755      0.00000
     43     112.9250      0.00000
     44     114.9248      0.00000
     45     117.7160      0.00000
     46     118.5501      0.00000
     47     121.1322      0.00000
     48     123.5291      0.00000
     49     124.8742      0.00000
     50     128.1413      0.00000
     51     128.8284      0.00000
     52     130.2406      0.00000
     53     133.7548      0.00000
     54     135.1603      0.00000
     55     137.8977      0.00000
     56     141.2877      0.00000

 k-point     8 :       0.3750    0.1250    0.0000
  band No.  band energies     occupation 
      1       1.9810      2.00000
      2       4.1798      2.00000
      3       4.5453      2.00000
      4       4.8350      2.00000
      5       5.8577      2.00000
      6       6.0166      2.00000
      7      16.5716      0.00000
      8      26.3481      0.00000
      9      26.9624      0.00000
     10      28.6818      0.00000
     11      37.0855      0.00000
     12      37.9824      0.00000
     13      38.0710      0.00000
     14      42.2334      0.00000
     15      48.6500      0.00000
     16      51.2265      0.00000
     17      57.4781      0.00000
     18      58.2974      0.00000
     19      60.7010      0.00000
     20      60.7707      0.00000
     21      65.0186      0.00000
     22      70.9016      0.00000
     23      74.5500      0.00000
     24      77.9392      0.00000
     25      80.6730      0.00000
     26      84.3491      0.00000
     27      86.2425      0.00000
     28      88.0546      0.00000
     29      89.3420      0.00000
     30      90.9098      0.00000
     31      91.8828      0.00000
     32      93.0148      0.00000
     33      94.0300      0.00000
     34      97.1288      0.00000
     35      99.2829      0.00000
     36     101.7843      0.00000
     37     102.0766      0.00000
     38     104.8206      0.00000
     39     108.6917      0.00000
     40     109.0080      0.00000
     41     109.9695      0.00000
     42     114.2863      0.00000
     43     114.9704      0.00000
     44     116.9567      0.00000
     45     119.1769      0.00000
     46     121.4283      0.00000
     47     125.5451      0.00000
     48     125.7536      0.00000
     49     128.8103      0.00000
     50     129.7103      0.00000
     51     133.7725      0.00000
     52     136.2230      0.00000
     53     138.0227      0.00000
     54     138.5883      0.00000
     55     140.7620      0.00000
     56     141.9985      0.00000

 k-point     9 :       0.5000    0.1250    0.0000
  band No.  band energies     occupation 
      1       2.7767      2.00000
      2       4.3413      2.00000
      3       4.7248      2.00000
      4       4.9151      2.00000
      5       5.9733      2.00000
      6       7.7163      0.00000
      7      12.0294      0.00000
      8      25.0372      0.00000
      9      26.8526      0.00000
     10      28.3386      0.00000
     11      36.0824      0.00000
     12      36.5110      0.00000
     13      40.9013      0.00000
     14      45.1010      0.00000
     15      51.0936      0.00000
     16      52.5056      0.00000
     17      55.1487      0.00000
     18      58.1968      0.00000
     19      64.6184      0.00000
     20      66.3389      0.00000
     21      67.1970      0.00000
     22      70.8487      0.00000
     23      72.3032      0.00000
     24      78.4235      0.00000
     25      78.6203      0.00000
     26      81.5565      0.00000
     27      81.9313      0.00000
     28      85.1717      0.00000
     29      85.8568      0.00000
     30      87.5781      0.00000
     31      89.4135      0.00000
     32      91.3504      0.00000
     33      93.6616      0.00000
     34      96.3579      0.00000
     35      98.6785      0.00000
     36     101.3536      0.00000
     37     101.5384      0.00000
     38     105.8304      0.00000
     39     106.7097      0.00000
     40     108.4839      0.00000
     41     109.7673      0.00000
     42     113.5142      0.00000
     43     117.9986      0.00000
     44     120.5044      0.00000
     45     122.0860      0.00000
     46     122.7836      0.00000
     47     127.7787      0.00000
     48     128.9084      0.00000
     49     129.6928      0.00000
     50     132.9530      0.00000
     51     133.7614      0.00000
     52     138.7432      0.00000
     53     142.5210      0.00000
     54     142.9568      0.00000
     55     144.2407      0.00000
     56     147.1221      0.00000

 k-point    10 :      -0.3750    0.1250    0.0000
  band No.  band energies     occupation 
      1       2.6729      2.00000
      2       4.4117      2.00000
      3       4.7244      2.00000
      4       4.7710      2.00000
      5       5.7560      2.00000
      6       7.1531      2.00000
      7      13.2870      0.00000
      8      23.8964      0.00000
      9      28.6576      0.00000
     10      29.1470      0.00000
     11      34.9939      0.00000
     12      36.1187      0.00000
     13      41.7046      0.00000
     14      45.4778      0.00000
     15      47.6959      0.00000
     16      51.0530      0.00000
     17      57.4307      0.00000
     18      60.9746      0.00000
     19      61.1386      0.00000
     20      65.5424      0.00000
     21      67.3384      0.00000
     22      68.9516      0.00000
     23      75.9793      0.00000
     24      77.2756      0.00000
     25      79.7023      0.00000
     26      80.1485      0.00000
     27      83.5466      0.00000
     28      85.6624      0.00000
     29      85.6648      0.00000
     30      89.0843      0.00000
     31      89.9954      0.00000
     32      91.8166      0.00000
     33      93.8496      0.00000
     34      97.1193      0.00000
     35      98.6445      0.00000
     36     101.1109      0.00000
     37     101.3810      0.00000
     38     105.8041      0.00000
     39     106.4594      0.00000
     40     108.3448      0.00000
     41     109.0528      0.00000
     42     113.4540      0.00000
     43     117.5664      0.00000
     44     119.7782      0.00000
     45     120.8133      0.00000
     46     124.7873      0.00000
     47     126.3862      0.00000
     48     128.8554      0.00000
     49     131.0946      0.00000
     50     133.3357      0.00000
     51     134.2332      0.00000
     52     135.9051      0.00000
     53     139.4971      0.00000
     54     140.9174      0.00000
     55     144.5782      0.00000
     56     146.3754      0.00000

 k-point    11 :      -0.2500    0.1250    0.0000
  band No.  band energies     occupation 
      1       1.4213      2.00000
      2       4.1781      2.00000
      3       4.6167      2.00000
      4       4.8521      2.00000
      5       5.3365      2.00000
      6       6.0507      2.00000
      7      18.4585      0.00000
      8      23.8185      0.00000
      9      31.0441      0.00000
     10      31.6586      0.00000
     11      34.7867      0.00000
     12      35.1527      0.00000
     13      40.1085      0.00000
     14      42.0980      0.00000
     15      44.6074      0.00000
     16      51.6361      0.00000
     17      53.3088      0.00000
     18      57.8549      0.00000
     19      59.4442      0.00000
     20      62.8600      0.00000
     21      68.0119      0.00000
     22      69.9091      0.00000
     23      74.5605      0.00000
     24      77.2122      0.00000
     25      83.0901      0.00000
     26      85.1656      0.00000
     27      87.4199      0.00000
     28      87.7397      0.00000
     29      90.3100      0.00000
     30      90.8528      0.00000
     31      93.7834      0.00000
     32      94.6177      0.00000
     33      97.2683      0.00000
     34      98.8114      0.00000
     35      99.2553      0.00000
     36     101.3703      0.00000
     37     102.1890      0.00000
     38     105.0674      0.00000
     39     108.1248      0.00000
     40     108.2482      0.00000
     41     109.2696      0.00000
     42     111.2858      0.00000
     43     114.3337      0.00000
     44     117.7759      0.00000
     45     118.1723      0.00000
     46     121.1060      0.00000
     47     124.6427      0.00000
     48     126.6950      0.00000
     49     129.5864      0.00000
     50     131.2134      0.00000
     51     132.8768      0.00000
     52     134.2926      0.00000
     53     134.8742      0.00000
     54     138.0169      0.00000
     55     142.0570      0.00000
     56     142.2509      0.00000

 k-point    12 :      -0.1250    0.1250    0.0000
  band No.  band energies     occupation 
      1      -0.3003      2.00000
      2       4.2832      2.00000
      3       4.7439      2.00000
      4       4.8201      2.00000
      5       5.1893      2.00000
      6       5.5668      2.00000
      7      24.3266      0.00000
      8      25.0506      0.00000
      9      33.0080      0.00000
     10      34.0838      0.00000
     11      34.8463      0.00000
     12      35.6864      0.00000
     13      36.1079      0.00000
     14      41.5322      0.00000
     15      43.3965      0.00000
     16      46.7533      0.00000
     17      47.4179      0.00000
     18      51.4917      0.00000
     19      56.5124      0.00000
     20      64.2768      0.00000
     21      68.4759      0.00000
     22      74.8520      0.00000
     23      76.0558      0.00000
     24      80.6119      0.00000
     25      82.6392      0.00000
     26      84.7715      0.00000
     27      91.5872      0.00000
     28      92.9908      0.00000
     29      93.3946      0.00000
     30      94.6624      0.00000
     31      95.1984      0.00000
     32      99.0675      0.00000
     33      99.6694      0.00000
     34      99.8140      0.00000
     35     100.2426      0.00000
     36     105.2458      0.00000
     37     105.3475      0.00000
     38     106.6470      0.00000
     39     107.0069      0.00000
     40     107.6113      0.00000
     41     111.5817      0.00000
     42     111.6889      0.00000
     43     112.9895      0.00000
     44     113.9331      0.00000
     45     115.0874      0.00000
     46     118.2009      0.00000
     47     122.6912      0.00000
     48     123.3324      0.00000
     49     124.1725      0.00000
     50     128.4434      0.00000
     51     128.7250      0.00000
     52     133.4537      0.00000
     53     133.5818      0.00000
     54     134.1912      0.00000
     55     135.0259      0.00000
[...]
     29      85.5373      0.00000
     30      85.7392      0.00000
     31      87.9380      0.00000
     32      89.0456      0.00000
     33      92.8893      0.00000
     34      92.9452      0.00000
     35      95.1413      0.00000
     36     104.7260      0.00000
     37     105.5568      0.00000
     38     107.6503      0.00000
     39     107.7401      0.00000
     40     110.7300      0.00000
     41     113.1931      0.00000
     42     114.7161      0.00000
     43     114.7798      0.00000
     44     121.0113      0.00000
     45     122.6900      0.00000
     46     123.2744      0.00000
     47     128.3511      0.00000
     48     129.5463      0.00000
     49     132.6529      0.00000
     50     133.8958      0.00000
     51     136.2213      0.00000
     52     136.7403      0.00000
     53     138.9462      0.00000
     54     139.6757      0.00000
     55     144.3358      0.00000
     56     144.5074      0.00000

 k-point    25 :       0.5000    0.3750    0.1250
  band No.  band energies     occupation 
      1       2.9994      2.00000
      2       3.5484      2.00000
      3       4.7268      2.00000
      4       5.6700      2.00000
      5       5.8138      2.00000
      6       7.8159      0.00000
      7      18.5087      0.00000
      8      19.2247      0.00000
      9      19.6720      0.00000
     10      29.7145      0.00000
     11      32.0089      0.00000
     12      41.1173      0.00000
     13      48.8233      0.00000
     14      50.5368      0.00000
     15      52.4715      0.00000
     16      52.5191      0.00000
     17      54.7186      0.00000
     18      60.5786      0.00000
     19      61.2966      0.00000
     20      63.1173      0.00000
     21      63.3192      0.00000
     22      69.2183      0.00000
     23      71.7479      0.00000
     24      73.4100      0.00000
     25      76.3647      0.00000
     26      80.4229      0.00000
     27      82.9560      0.00000
     28      84.0084      0.00000
     29      84.9549      0.00000
     30      90.4710      0.00000
     31      91.0955      0.00000
     32      93.0086      0.00000
     33      93.3413      0.00000
     34      93.8666      0.00000
     35      99.3753      0.00000
     36     102.6186      0.00000
     37     105.2471      0.00000
     38     107.0549      0.00000
     39     107.2580      0.00000
     40     112.3488      0.00000
     41     113.6222      0.00000
     42     114.3150      0.00000
     43     116.1232      0.00000
     44     118.2751      0.00000
     45     120.5234      0.00000
     46     124.4325      0.00000
     47     124.7817      0.00000
     48     126.9668      0.00000
     49     127.0886      0.00000
     50     130.4079      0.00000
     51     132.9766      0.00000
     52     136.3999      0.00000
     53     136.6404      0.00000
     54     145.2579      0.00000
     55     145.5280      0.00000
     56     148.7483      0.00000

 k-point    26 :      -0.3750    0.3750    0.1250
  band No.  band energies     occupation 
      1       3.4152      2.00000
      2       3.6761      2.00000
      3       4.4686      2.00000
      4       5.4219      2.00000
      5       5.9836      2.00000
      6      10.9243      0.00000
      7      13.9658      0.00000
      8      17.3567      0.00000
      9      19.5942      0.00000
     10      30.8458      0.00000
     11      36.5873      0.00000
     12      39.1953      0.00000
     13      45.5071      0.00000
     14      48.4346      0.00000
     15      52.4822      0.00000
     16      55.3488      0.00000
     17      57.5660      0.00000
     18      60.8531      0.00000
     19      62.9969      0.00000
     20      64.7730      0.00000
     21      67.2936      0.00000
     22      70.3123      0.00000
     23      70.8938      0.00000
     24      74.0584      0.00000
     25      76.4505      0.00000
     26      78.5902      0.00000
     27      79.5616      0.00000
     28      83.1576      0.00000
     29      84.4064      0.00000
     30      86.6363      0.00000
     31      86.8411      0.00000
     32      90.8885      0.00000
     33      91.2834      0.00000
     34      93.3990      0.00000
     35      94.6214      0.00000
     36     103.6277      0.00000
     37     105.4544      0.00000
     38     106.8639      0.00000
     39     110.0831      0.00000
     40     111.5667      0.00000
     41     114.6740      0.00000
     42     116.5389      0.00000
     43     119.2678      0.00000
     44     122.5753      0.00000
     45     122.7022      0.00000
     46     124.9636      0.00000
     47     127.6329      0.00000
     48     128.6488      0.00000
     49     129.4732      0.00000
     50     132.2769      0.00000
     51     135.0775      0.00000
     52     136.4073      0.00000
     53     138.1531      0.00000
     54     138.4051      0.00000
     55     144.2558      0.00000
     56     145.9392      0.00000

 k-point    27 :      -0.2500    0.3750    0.1250
  band No.  band energies     occupation 
      1       3.6561      2.00000
      2       3.8466      2.00000
      3       4.0837      2.00000
      4       5.3098      2.00000
      5       5.8176      2.00000
      6      10.0316      0.00000
      7      14.7679      0.00000
      8      16.7213      0.00000
      9      21.3113      0.00000
     10      31.9959      0.00000
     11      36.4408      0.00000
     12      40.0970      0.00000
     13      44.1299      0.00000
     14      46.2772      0.00000
     15      50.4886      0.00000
     16      54.2369      0.00000
     17      54.4594      0.00000
     18      63.7387      0.00000
     19      63.7832      0.00000
     20      67.3945      0.00000
     21      69.4008      0.00000
     22      69.6241      0.00000
     23      73.3521      0.00000
     24      75.8925      0.00000
     25      75.9944      0.00000
     26      77.0825      0.00000
     27      78.7425      0.00000
     28      81.1359      0.00000
     29      85.9423      0.00000
     30      86.4317      0.00000
     31      87.1151      0.00000
     32      90.0208      0.00000
     33      90.3004      0.00000
     34      93.2638      0.00000
     35      96.2564      0.00000
     36     102.3897      0.00000
     37     105.3643      0.00000
     38     108.9719      0.00000
     39     108.9918      0.00000
     40     110.7355      0.00000
     41     114.5237      0.00000
     42     118.0443      0.00000
     43     119.9769      0.00000
     44     121.0244      0.00000
     45     123.3104      0.00000
     46     124.4566      0.00000
     47     126.1400      0.00000
     48     128.8287      0.00000
     49     130.5870      0.00000
     50     134.3345      0.00000
     51     134.9235      0.00000
     52     137.1211      0.00000
     53     137.3938      0.00000
     54     138.7896      0.00000
     55     143.7938      0.00000
     56     145.4888      0.00000

 k-point    28 :      -0.3750    0.5000    0.1250
  band No.  band energies     occupation 
      1       3.0389      2.00000
      2       3.3907      2.00000
      3       5.1816      2.00000
      4       5.7000      2.00000
      5       6.1026      2.00000
      6      10.6826      0.00000
      7      14.9954      0.00000
      8      17.6020      0.00000
      9      18.5044      0.00000
     10      29.1662      0.00000
     11      31.6391      0.00000
     12      43.7641      0.00000
     13      48.3015      0.00000
     14      52.5465      0.00000
     15      55.8537      0.00000
     16      56.3487      0.00000
     17      59.2213      0.00000
     18      59.3212      0.00000
     19      61.2562      0.00000
     20      63.7173      0.00000
     21      64.5944      0.00000
     22      65.4821      0.00000
     23      68.8536      0.00000
     24      70.7847      0.00000
     25      71.2254      0.00000
     26      77.0531      0.00000
     27      82.2824      0.00000
     28      87.2301      0.00000
     29      87.4816      0.00000
     30      88.0890      0.00000
     31      89.3457      0.00000
     32      92.0490      0.00000
     33      93.1581      0.00000
     34      93.9875      0.00000
     35      98.4644      0.00000
     36     101.2848      0.00000
     37     103.1526      0.00000
     38     106.9394      0.00000
     39     108.4558      0.00000
     40     110.6904      0.00000
     41     112.3798      0.00000
     42     114.5026      0.00000
     43     117.2669      0.00000
     44     120.2014      0.00000
     45     122.3511      0.00000
     46     125.9247      0.00000
     47     127.1550      0.00000
     48     127.7494      0.00000
     49     131.8716      0.00000
     50     134.1439      0.00000
     51     134.7479      0.00000
     52     135.2620      0.00000
     53     140.4686      0.00000
     54     145.0796      0.00000
     55     146.2289      0.00000
     56     146.6106      0.00000

 k-point    29 :      -0.2500    0.5000    0.2500
  band No.  band energies     occupation 
      1       3.4570      2.00000
      2       4.0606      2.00000
      3       4.0606      2.00000
      4       5.3537      2.00000
      5       6.1026      2.00000
      6      13.7907      0.00000
      7      13.7908      0.00000
      8      15.8920      0.00000
      9      16.3873      0.00000
     10      35.8300      0.00000
     11      35.8301      0.00000
     12      37.0516      0.00000
     13      41.5965      0.00000
     14      54.6005      0.00000
     15      54.6006      0.00000
     16      55.8237      0.00000
     17      58.8978      0.00000
     18      60.2684      0.00000
     19      60.2684      0.00000
     20      60.7536      0.00000
     21      64.4466      0.00000
     22      73.8775      0.00000
     23      76.0305      0.00000
     24      76.7498      0.00000
     25      76.7499      0.00000
     26      79.3647      0.00000
     27      79.3647      0.00000
     28      82.5394      0.00000
     29      82.7128      0.00000
     30      82.8974      0.00000
     31      83.4777      0.00000
     32      83.4777      0.00000
     33      92.3934      0.00000
     34      95.5976      0.00000
     35      95.5977      0.00000
     36     101.9304      0.00000
     37     101.9329      0.00000
     38     110.3597      0.00000
     39     113.3896      0.00000
     40     113.3896      0.00000
     41     113.7822      0.00000
     42     119.4706      0.00000
     43     121.5296      0.00000
     44     121.5296      0.00000
     45     122.4255      0.00000
     46     125.7603      0.00000
     47     127.4584      0.00000
     48     127.4585      0.00000
     49     128.7135      0.00000
     50     132.0529      0.00000
     51     132.0529      0.00000
     52     135.8250      0.00000
     53     136.6610      0.00000
     54     144.3422      0.00000
     55     144.4157      0.00000
     56     144.4157      0.00000


--------------------------------------------------------------------------------------------------------


 soft charge-density along one line, spin component           1
         0         1         2         3         4         5         6         7         8         9
 total charge-density along one line
 
 pseudopotential strength for first ion, spin component:           1
 -2.900   0.000   0.000   0.000  -0.000  -4.718  -0.000  -0.000
  0.000  -2.900  -0.000   0.000   0.000  -0.000  -4.718   0.000
  0.000  -0.000  -2.883  -0.000  -0.000  -0.000   0.000  -4.730
  0.000   0.000  -0.000  -2.900  -0.000  -0.000  -0.000   0.000
 -0.000   0.000  -0.000  -0.000  -2.883   0.000  -0.000   0.000
 -4.718  -0.000  -0.000  -0.000   0.000  10.285  -0.000   0.000
 -0.000  -4.718   0.000  -0.000  -0.000  -0.000  10.285  -0.000
 -0.000   0.000  -4.730   0.000   0.000   0.000  -0.000  10.294
 -0.000  -0.000   0.000  -4.718   0.000  -0.000  -0.000  -0.000
  0.000  -0.000   0.000   0.000  -4.730  -0.000   0.000  -0.000
  0.000   0.000   0.000   0.000  -0.000   0.000   0.000  -0.000
  0.000   0.000   0.000   0.000  -0.000   0.000   0.000  -0.000
  0.000   0.000   0.000   0.000  -0.000   0.000   0.000   0.000
  0.000   0.000   0.000   0.000  -0.000   0.000   0.000  -0.000
  0.000   0.000  -0.000   0.000   0.000   0.000   0.000   0.000
  0.000   0.000  -0.000   0.000  -0.000   0.000   0.000   0.000
  0.000   0.000   0.000   0.000   0.000   0.000   0.000  -0.000
  0.000   0.000  -0.000   0.000   0.000   0.000   0.000  -0.000
 total augmentation occupancy for first ion, spin component:           1
  1.909  -0.000   0.000  -0.000   0.000  -0.013   0.000   0.000   0.000   0.000   0.000   0.000   0.000   0.000   0.000   0.000
 -0.000   1.909   0.000  -0.000   0.000   0.000  -0.013   0.000   0.000   0.000   0.000  -0.000   0.000   0.000   0.000   0.000
  0.000  -0.000   1.928   0.000   0.000   0.000  -0.000  -0.032  -0.000   0.000   0.000  -0.000   0.000   0.000   0.000   0.000
 -0.000  -0.000  -0.000   1.909   0.000   0.000   0.000  -0.000  -0.013  -0.000  -0.000   0.000   0.000   0.000   0.000   0.000
  0.000   0.000   0.000   0.000   1.928  -0.000  -0.000  -0.000  -0.000  -0.032   0.000   0.000   0.000   0.000   0.000   0.000
 -0.013   0.000   0.000   0.000  -0.000   0.018   0.000  -0.000   0.000  -0.000  -0.000   0.000   0.000   0.000   0.000   0.000
  0.000  -0.013   0.000   0.000   0.000   0.000   0.018   0.000   0.000   0.000   0.000  -0.000   0.000   0.000   0.000   0.000
  0.000  -0.000  -0.032  -0.000  -0.000  -0.000   0.000   0.017   0.000   0.000   0.000  -0.000   0.000   0.000   0.000   0.000
  0.000   0.000  -0.000  -0.013   0.000   0.000  -0.000   0.000   0.018  -0.000   0.000   0.000   0.000   0.000   0.000   0.000
 -0.000   0.000   0.000  -0.000  -0.032   0.000   0.000  -0.000   0.000   0.017   0.000   0.000   0.000   0.000   0.000   0.000
 -0.000   0.000   0.000   0.000   0.000  -0.000   0.000   0.000   0.000   0.000   1.809  -0.175   0.000   0.000   0.000   0.000
  0.000  -0.000  -0.000  -0.000   0.000   0.000  -0.000  -0.000   0.000   0.000  -0.175   0.023   0.000   0.000   0.000   0.000
  0.000   0.000   0.000   0.000   0.000   0.000   0.000   0.000   0.000   0.000   0.000   0.000   0.237  -0.000   0.000  -0.016
  0.000   0.000   0.000   0.000   0.000   0.000   0.000   0.000   0.000   0.000   0.000   0.000  -0.000   0.237   0.000   0.000
  0.000   0.000   0.000   0.000   0.000   0.000   0.000   0.000   0.000   0.000   0.000   0.000   0.000   0.000   0.237  -0.000
  0.000   0.000   0.000   0.000   0.000   0.000   0.000   0.000   0.000   0.000   0.000   0.000  -0.016   0.000  -0.000   0.001
  0.000   0.000   0.000   0.000   0.000   0.000   0.000   0.000   0.000   0.000   0.000   0.000   0.000  -0.016   0.000   0.000
  0.000   0.000   0.000   0.000   0.000   0.000   0.000   0.000   0.000   0.000   0.000   0.000  -0.000   0.000  -0.016   0.000


------------------------ aborting loop because EDIFF is reached ----------------------------------------


    CHARGE:  cpu time    0.0240: real time    0.0370
    FORLOC:  cpu time    0.0126: real time    0.0126
    FORNL :  cpu time    0.1170: real time    0.1170
    STRESS:  cpu time    0.0528: real time    0.0660
    FORCOR:  cpu time    0.4518: real time    0.4519
    FORHAR:  cpu time    0.1690: real time    0.1692
    MIXING:  cpu time    0.3248: real time    0.3248
    OFIELD:  cpu time    0.0002: real time    0.0002

  FORCE on cell =-STRESS in cart. coord.  units (eV):
  Direction    XX          YY          ZZ          XY          YZ          ZX
  --------------------------------------------------------------------------------------
  Alpha Z    61.92233    61.92233    61.92233
  Ewald    -368.30548  -368.30548  -368.30548     0.00000     0.00000    -0.00000
  Hartree   112.89440   112.89440   112.89440     0.00000     0.00000     0.00000
  E(xc)     -64.35182   -64.35182   -64.35182    -0.00002    -0.00002    -0.00002
  Local      94.31591    94.31591    94.31591     0.00053     0.00053     0.00053
  n-local   -21.13362   -20.02965   -22.61163     1.48956    -1.61253     1.12466
  augment    94.81153    94.81153    94.81153    -0.00051    -0.00051    -0.00051
  Kinetic    88.75012    88.64905    92.60262    -1.89675     2.82466    -2.13163
  Fock        0.00000     0.00000     0.00000     0.00000     0.00000     0.00000
  -------------------------------------------------------------------------------------
  Total       0.02916     0.02916     0.02916     0.00000     0.00000    -0.00000
  in kB       3.95630     3.95630     3.95630     0.00000     0.00000    -0.00000
  external pressure =        3.96 kB  Pullay stress =        0.00 kB


 VOLUME and BASIS-vectors are now :
 -----------------------------------------------------------------------------
  energy-cutoff  :      300.00
  volume of cell :       11.81
      direct lattice vectors                 reciprocal lattice vectors
     0.000000000  1.807500000  1.807500000    -0.276625173  0.276625173  0.276625173
     1.807500000  0.000000000  1.807500000     0.276625173 -0.276625173  0.276625173
     1.807500000  1.807500000  0.000000000     0.276625173  0.276625173 -0.276625173

  length of vectors
     2.556191014  2.556191014  2.556191014     0.479128854  0.479128854  0.479128854


 FORCES acting on ions
    electron-ion (+dipol)            ewald-force                    non-local-force                 convergence-correction
 -----------------------------------------------------------------------------------------------
   -.492E-13 -.315E-13 -.413E-13   -.170E-14 -.690E-15 -.260E-14   0.000E+00 0.000E+00 -.101E-27   -.293E-13 -.674E-13 -.515E-13
 -----------------------------------------------------------------------------------------------
   -.492E-13 -.315E-13 -.413E-13   -.170E-14 -.690E-15 -.260E-14   0.000E+00 0.000E+00 -.101E-27   -.293E-13 -.674E-13 -.515E-13
 
 
 POSITION                                       TOTAL-FORCE (eV/Angst)
 -----------------------------------------------------------------------------------
      0.00000      0.00000      0.00000         0.000000     -0.000000      0.000000
 -----------------------------------------------------------------------------------
    total drift:                               -0.000000     -0.000000     -0.000000


--------------------------------------------------------------------------------------------------------



  FREE ENERGIE OF THE ION-ELECTRON SYSTEM (eV)
  ---------------------------------------------------
  free  energy   TOTEN  =        -3.69518858 eV

  energy  without entropy=       -3.69367182  energy(sigma->0) =       -3.69443020
 


--------------------------------------------------------------------------------------------------------


    POTLOK:  cpu time    0.0779: real time    0.0779


--------------------------------------------------------------------------------------------------------


 writing wavefunctions
     LOOP+:  cpu time   50.4794: real time   54.4671
    4ORBIT:  cpu time    0.0000: real time    0.0000

 total amount of memory used by VASP MPI-rank0    31022. kBytes
=======================================================================

   base      :      30000. kBytes
   nonl-proj :        704. kBytes
   fftplans  :         48. kBytes
   grid      :        152. kBytes
   one-center:         15. kBytes
   wavefun   :        103. kBytes
 
  
  
 General timing and accounting informations for this job:
 ========================================================
  
                  Total CPU time used (sec):       60.610
                            User time (sec):       59.998
                          System time (sec):        0.612
                         Elapsed time (sec):       66.190
  
                   Maximum memory used (kb):      238480.
                   Average memory used (kb):           0.
  
                          Minor page faults:        27902
                          Major page faults:            2
                 Voluntary context switches:         2253
