 written on 25Apr2021 at 23:27:20 
          11
          85
    2    1    1    1    2    1    1    1    1    1    2    1    1    1    1
    1    1    1    1    2    1    1    1    1    1    1    1    1    1    1
    1    1    1    1    1    1    1    1    1    1    1    1    1    1    1
    1    1    1    1    1    1    1    1    1    1    1    1    1    1    1
    1    1    1    1    1    2    1    1    1    1    1    1    1    1    2
    1    1    1    1    1    2    1    1    1    2
   -6   -3    0    1    1    0.001911    0.000000
   -6   -3    0    2    1   -0.000000   -0.000000
   -6   -3    0    3    1    0.000000    0.000000
   -6   -3    0    4    1   -0.000002   -0.000000
   -6   -3    0    5    1    0.000000    0.000000
   -6   -3    0    6    1   -0.000104   -0.000000
   -6   -3    0    7    1   -0.001122   -0.000000
   -6   -3    0    8    1   -0.000652    0.000000
   -6   -3    0    9    1    0.000104   -0.000000
   -6   -3    0   10    1   -0.001122    0.000000
   -6   -3    0   11    1   -0.000652   -0.000000
   -6   -3    0    1    2   -0.000000   -0.000000
   -6   -3    0    2    2    0.000366    0.000000
   -6   -3    0    3    2   -0.000000   -0.000000
   -6   -3    0    4    2   -0.000000    0.000000
   -6   -3    0    5    2   -0.000000    0.000000
   -6   -3    0    6    2    0.000043   -0.000000
   -6   -3    0    7    2    0.000542    0.000000
   -6   -3    0    8    2    0.000168    0.000000
   -6   -3    0    9    2    0.000043    0.000000
   -6   -3    0   10    2   -0.000542    0.000000
   -6   -3    0   11    2   -0.000168   -0.000000
   -6   -3    0    1    3   -0.000000   -0.000000
   -6   -3    0    2    3   -0.000000    0.000000
   -6   -3    0    3    3    0.000351    0.000000
   -6   -3    0    4    3   -0.000000   -0.000000
   -6   -3    0    5    3   -0.000000   -0.000000
   -6   -3    0    6    3    0.000015   -0.000000
   -6   -3    0    7    3    0.000163   -0.000000
   -6   -3    0    8    3    0.000337   -0.000000
   -6   -3    0    9    3    0.000015   -0.000000
   -6   -3    0   10    3   -0.000163   -0.000000
   -6   -3    0   11    3   -0.000337   -0.000000
   -6   -3    0    1    4   -0.000034    0.000000
   -6   -3    0    2    4   -0.000000    0.000000
   -6   -3    0    3    4   -0.000000    0.000000
   -6   -3    0    4    4    0.000790    0.000000
   -6   -3    0    5    4    0.000000   -0.000000
   -6   -3    0    6    4   -0.000778   -0.000000
   -6   -3    0    7    4    0.001232   -0.000000
   -6   -3    0    8    4   -0.000613   -0.000000
   -6   -3    0    9    4    0.000778    0.000000
   -6   -3    0   10    4    0.001232    0.000000
   -6   -3    0   11    4   -0.000613    0.000000
   -6   -3    0    1    5   -0.000000    0.000000
   -6   -3    0    2    5    0.000000   -0.000000
   -6   -3    0    3    5   -0.000000   -0.000000
   -6   -3    0    4    5    0.000000    0.000000
   -6   -3    0    5    5    0.000776   -0.000000
   -6   -3    0    6    5   -0.001367   -0.000000
   -6   -3    0    7    5    0.000839    0.000000
   -6   -3    0    8    5    0.001316    0.000000
   -6   -3    0    9    5    0.001367    0.000000
   -6   -3    0   10    5    0.000839   -0.000000
   -6   -3    0   11    5    0.001316   -0.000000
   -6   -3    0    1    6   -0.001105    0.000000
   -6   -3    0    2    6   -0.000101   -0.000000
   -6   -3    0    3    6   -0.000078   -0.000000
   -6   -3    0    4    6   -0.000676    0.000000
   -6   -3    0    5    6   -0.001150   -0.000000
   -6   -3    0    6    6    0.001015    0.000000
   -6   -3    0    7    6    0.000000   -0.000000
   -6   -3    0    8    6   -0.000022    0.000000
   -6   -3    0    9    6   -0.001130    0.000000
   -6   -3    0   10    6   -0.000000    0.000000
   -6   -3    0   11    6   -0.000028    0.000000
   -6   -3    0    1    7    0.000714    0.000000
   -6   -3    0    2    7    0.000129   -0.000000
   -6   -3    0    3    7    0.000150    0.000000
   -6   -3    0    4    7   -0.000078   -0.000000
   -6   -3    0    5    7    0.000204    0.000000
   -6   -3    0    6    7    0.000000    0.000000
   -6   -3    0    7    7   -0.000737    0.000000
   -6   -3    0    8    7   -0.000000    0.000000
   -6   -3    0    9    7    0.000000   -0.000000
   -6   -3    0   10    7    0.000328    0.000000
   -6   -3    0   11    7    0.000000   -0.000000
   -6   -3    0    1    8    0.000396   -0.000000
   -6   -3    0    2    8    0.000164    0.000000
   -6   -3    0    3    8   -0.000132    0.000000
   -6   -3    0    4    8    0.000296   -0.000000
   -6   -3    0    5    8   -0.000084   -0.000000
   -6   -3    0    6    8    0.000013   -0.000000
   -6   -3    0    7    8   -0.000000   -0.000000
   -6   -3    0    8    8   -0.000758   -0.000000
   -6   -3    0    9    8    0.000009   -0.000000
   -6   -3    0   10    8    0.000000   -0.000000
   -6   -3    0   11    8    0.000351   -0.000000
   -6   -3    0    1    9    0.001105    0.000000
   -6   -3    0    2    9   -0.000101   -0.000000
   -6   -3    0    3    9   -0.000078    0.000000
   -6   -3    0    4    9    0.000676    0.000000
   -6   -3    0    5    9    0.001150   -0.000000
   -6   -3    0    6    9   -0.001130   -0.000000
   -6   -3    0    7    9    0.000000   -0.000000
   -6   -3    0    8    9    0.000028    0.000000
   -6   -3    0    9    9    0.001015   -0.000000
   -6   -3    0   10    9   -0.000000    0.000000
   -6   -3    0   11    9    0.000022    0.000000
   -6   -3    0    1   10    0.000714   -0.000000
   -6   -3    0    2   10   -0.000129   -0.000000
   -6   -3    0    3   10   -0.000150    0.000000
   -6   -3    0    4   10   -0.000078   -0.000000
   -6   -3    0    5   10    0.000204   -0.000000
   -6   -3    0    6   10   -0.000000   -0.000000
   -6   -3    0    7   10    0.000328   -0.000000
   -6   -3    0    8   10    0.000000    0.000000
   -6   -3    0    9   10   -0.000000   -0.000000
   -6   -3    0   10   10   -0.000737   -0.000000
   -6   -3    0   11   10   -0.000000   -0.000000
   -6   -3    0    1   11    0.000396    0.000000
   -6   -3    0    2   11   -0.000164    0.000000
   -6   -3    0    3   11    0.000132    0.000000
   -6   -3    0    4   11    0.000296    0.000000
   -6   -3    0    5   11   -0.000084    0.000000
   -6   -3    0    6   11   -0.000009   -0.000000
   -6   -3    0    7   11    0.000000   -0.000000
   -6   -3    0    8   11    0.000351    0.000000
   -6   -3    0    9   11   -0.000013   -0.000000
   -6   -3    0   10   11   -0.000000    0.000000
   -6   -3    0   11   11   -0.000758   -0.000000
   -5   -4    0    1    1   -0.000063    0.000000
   -5   -4    0    2    1    0.000000    0.000000
   -5   -4    0    3    1   -0.000000    0.000000
   -5   -4    0    4    1   -0.000666   -0.000000
   -5   -4    0    5    1    0.001099   -0.000000
   -5   -4    0    6    1   -0.000259   -0.000000
   -5   -4    0    7    1    0.000625   -0.000000
   -5   -4    0    8    1    0.000377    0.000000
   -5   -4    0    9    1    0.000259   -0.000000
   -5   -4    0   10    1    0.000625    0.000000
   -5   -4    0   11    1    0.000377   -0.000000
   -5   -4    0    1    2    0.000000   -0.000000
   -5   -4    0    2    2    0.000280   -0.000000
   -5   -4    0    3    2   -0.000656   -0.000000
   -5   -4    0    4    2    0.000000   -0.000000
   -5   -4    0    5    2    0.000000   -0.000000
   -5   -4    0    6    2   -0.000068   -0.000000
   -5   -4    0    7    2    0.000312   -0.000000
   -5   -4    0    8    2    0.000078   -0.000000
   -5   -4    0    9    2   -0.000068    0.000000
   -5   -4    0   10    2   -0.000312   -0.000000
   -5   -4    0   11    2   -0.000078   -0.000000
   -5   -4    0    1    3   -0.000000   -0.000000
   -5   -4    0    2    3   -0.000622   -0.000000
   -5   -4    0    3    3   -0.000421   -0.000000
   -5   -4    0    4    3    0.000000    0.000000
   -5   -4    0    5    3    0.000000    0.000000
   -5   -4    0    6    3    0.000310    0.000000
   -5   -4    0    7    3   -0.000255   -0.000000
   -5   -4    0    8    3    0.001483   -0.000000
   -5   -4    0    9    3    0.000310   -0.000000
   -5   -4    0   10    3    0.000255   -0.000000
   -5   -4    0   11    3   -0.001483   -0.000000
   -5   -4    0    1    4   -0.000298   -0.000000
   -5   -4    0    2    4   -0.000000   -0.000000
   -5   -4    0    3    4   -0.000000   -0.000000
   -5   -4    0    4    4    0.000631   -0.000000
   -5   -4    0    5    4    0.001647    0.000000
   -5   -4    0    6    4   -0.000198   -0.000000
   -5   -4    0    7    4   -0.001159    0.000000
   -5   -4    0    8    4   -0.000763    0.000000
   -5   -4    0    9    4    0.000198   -0.000000
   -5   -4    0   10    4   -0.001159   -0.000000
   -5   -4    0   11    4   -0.000763   -0.000000
   -5   -4    0    1    5    0.000563   -0.000000
   -5   -4    0    2    5   -0.000000   -0.000000
   -5   -4    0    3    5   -0.000000    0.000000
   -5   -4    0    4    5    0.001717   -0.000000
   -5   -4    0    5    5   -0.001359   -0.000000
   -5   -4    0    6    5   -0.000180    0.000000
   -5   -4    0    7    5   -0.000288   -0.000000
   -5   -4    0    8    5    0.000189   -0.000000
   -5   -4    0    9    5    0.000180    0.000000
   -5   -4    0   10    5   -0.000288    0.000000
   -5   -4    0   11    5    0.000189   -0.000000
   -5   -4    0    1    6    0.000882    0.000000
   -5   -4    0    2    6   -0.000073   -0.000000
   -5   -4    0    3    6    0.000635   -0.000000
   -5   -4    0    4    6   -0.000506   -0.000000
   -5   -4    0    5    6   -0.001508    0.000000
   -5   -4    0    6    6    0.000331    0.000000
   -5   -4    0    7    6    0.000137    0.000000
   -5   -4    0    8    6   -0.000061    0.000000
   -5   -4    0    9    6   -0.000365    0.000000
   -5   -4    0   10    6    0.000653    0.000000
   -5   -4    0   11    6   -0.000382    0.000000
   -5   -4    0    1    7   -0.000347    0.000000
   -5   -4    0    2    7   -0.000318    0.000000
   -5   -4    0    3    7    0.000028    0.000000
   -5   -4    0    4    7   -0.000167    0.000000
   -5   -4    0    5    7    0.000736   -0.000000
   -5   -4    0    6    7    0.000044   -0.000000
   -5   -4    0    7    7    0.000388   -0.000000
   -5   -4    0    8    7   -0.000188   -0.000000
   -5   -4    0    9    7   -0.000115   -0.000000
   -5   -4    0   10    7   -0.000137    0.000000
   -5   -4    0   11    7    0.000614    0.000000
   -5   -4    0    1    8   -0.001900   -0.000000
   -5   -4    0    2    8   -0.000150   -0.000000
   -5   -4    0    3    8    0.000958    0.000000
   -5   -4    0    4    8   -0.000312    0.000000
   -5   -4    0    5    8    0.001614    0.000000
   -5   -4    0    6    8   -0.000013   -0.000000
   -5   -4    0    7    8   -0.000174   -0.000000
   -5   -4    0    8    8    0.000136    0.000000
   -5   -4    0    9    8    0.000090   -0.000000
   -5   -4    0   10    8    0.000609   -0.000000
   -5   -4    0   11    8    0.000595   -0.000000
   -5   -4    0    1    9   -0.000882    0.000000
   -5   -4    0    2    9   -0.000073    0.000000
   -5   -4    0    3    9    0.000635    0.000000
   -5   -4    0    4    9    0.000506   -0.000000
   -5   -4    0    5    9    0.001508    0.000000
   -5   -4    0    6    9   -0.000365   -0.000000
   -5   -4    0    7    9   -0.000653    0.000000
   -5   -4    0    8    9    0.000382   -0.000000
   -5   -4    0    9    9    0.000331    0.000000
   -5   -4    0   10    9   -0.000137    0.000000
   -5   -4    0   11    9    0.000061    0.000000
   -5   -4    0    1   10   -0.000347   -0.000000
   -5   -4    0    2   10    0.000318    0.000000
   -5   -4    0    3   10   -0.000028    0.000000
   -5   -4    0    4   10   -0.000167   -0.000000
   -5   -4    0    5   10    0.000736    0.000000
   -5   -4    0    6   10    0.000115   -0.000000
   -5   -4    0    7   10   -0.000137   -0.000000
   -5   -4    0    8   10    0.000614   -0.000000
   -5   -4    0    9   10   -0.000044   -0.000000
   -5   -4    0   10   10    0.000388    0.000000
   -5   -4    0   11   10   -0.000188   -0.000000
   -5   -4    0    1   11   -0.001900    0.000000
   -5   -4    0    2   11    0.000150    0.000000
   -5   -4    0    3   11   -0.000958    0.000000
   -5   -4    0    4   11   -0.000312   -0.000000
   -5   -4    0    5   11    0.001614   -0.000000
   -5   -4    0    6   11   -0.000090   -0.000000
   -5   -4    0    7   11    0.000609   -0.000000
   -5   -4    0    8   11    0.000595    0.000000
   -5   -4    0    9   11    0.000013   -0.000000
   -5   -4    0   10   11   -0.000174    0.000000
   -5   -4    0   11   11    0.000136   -0.000000
   -5   -3    0    1    1   -0.000870    0.000000
   -5   -3    0    2    1   -0.000000    0.000000
   -5   -3    0    3    1    0.000000    0.000000
   -5   -3    0    4    1    0.000556   -0.000000
   -5   -3    0    5    1    0.000038   -0.000000
   -5   -3    0    6    1   -0.000863   -0.000000
   -5   -3    0    7    1    0.001641   -0.000000
   -5   -3    0    8    1    0.000941   -0.000000
   -5   -3    0    9    1    0.000863   -0.000000
   -5   -3    0   10    1    0.001641    0.000000
   -5   -3    0   11    1    0.000941    0.000000
   -5   -3    0    1    2   -0.000000   -0.000000
   -5   -3    0    2    2   -0.000900   -0.000000
   -5   -3    0    3    2   -0.000379    0.000000
   -5   -3    0    4    2   -0.000000   -0.000000
   -5   -3    0    5    2    0.000000   -0.000000
   -5   -3    0    6    2    0.000557    0.000000
   -5   -3    0    7    2    0.000720   -0.000000
   -5   -3    0    8    2   -0.000209   -0.000000
   -5   -3    0    9    2    0.000557    0.000000
   -5   -3    0   10    2   -0.000720   -0.000000
   -5   -3    0   11    2    0.000209    0.000000
   -5   -3    0    1    3    0.000000   -0.000000
   -5   -3    0    2    3    0.000726   -0.000000
   -5   -3    0    3    3    0.000720    0.000000
   -5   -3    0    4    3   -0.000000   -0.000000
   -5   -3    0    5    3    0.000000   -0.000000
   -5   -3    0    6    3   -0.000736    0.000000
   -5   -3    0    7    3   -0.000299   -0.000000
   -5   -3    0    8    3   -0.000881   -0.000000
   -5   -3    0    9    3   -0.000736   -0.000000
   -5   -3    0   10    3    0.000299   -0.000000
   -5   -3    0   11    3    0.000881    0.000000
   -5   -3    0    1    4    0.002354   -0.000000
   -5   -3    0    2    4   -0.000000   -0.000000
   -5   -3    0    3    4   -0.000000   -0.000000
   -5   -3    0    4    4    0.000562   -0.000000
   -5   -3    0    5    4   -0.001754    0.000000
   -5   -3    0    6    4    0.000887    0.000000
   -5   -3    0    7    4   -0.002276    0.000000
   -5   -3    0    8    4   -0.001500   -0.000000
   -5   -3    0    9    4   -0.000887    0.000000
   -5   -3    0   10    4   -0.002276   -0.000000
   -5   -3    0   11    4   -0.001500    0.000000
   -5   -3    0    1    5    0.001271    0.000000
   -5   -3    0    2    5   -0.000000   -0.000000
   -5   -3    0    3    5   -0.000000   -0.000000
   -5   -3    0    4    5    0.000645    0.000000
   -5   -3    0    5    5   -0.001561    0.000000
   -5   -3    0    6    5    0.002174    0.000000
   -5   -3    0    7    5   -0.002470    0.000000
   -5   -3    0    8    5   -0.002478    0.000000
   -5   -3    0    9    5   -0.002174    0.000000
   -5   -3    0   10    5   -0.002470   -0.000000
   -5   -3    0   11    5   -0.002478   -0.000000
   -5   -3    0    1    6   -0.001105   -0.000000
   -5   -3    0    2    6    0.000101    0.000000
   -5   -3    0    3    6   -0.000078    0.000000
   -5   -3    0    4    6   -0.000676    0.000000
   -5   -3    0    5    6    0.001150    0.000000
   -5   -3    0    6    6   -0.000829   -0.000000
   -5   -3    0    7    6    0.000936    0.000000
   -5   -3    0    8    6    0.001137    0.000000
   -5   -3    0    9    6    0.000697   -0.000000
   -5   -3    0   10    6    0.000940    0.000000
   -5   -3    0   11    6    0.001511   -0.000000
   -5   -3    0    1    7   -0.000714    0.000000
   -5   -3    0    2    7    0.000129    0.000000
   -5   -3    0    3    7   -0.000150    0.000000
   -5   -3    0    4    7    0.000077    0.000000
   -5   -3    0    5    7    0.000204    0.000000
   -5   -3    0    6    7   -0.000423   -0.000000
   -5   -3    0    7    7    0.000438    0.000000
   -5   -3    0    8    7    0.000493   -0.000000
   -5   -3    0    9    7    0.000249   -0.000000
   -5   -3    0   10    7    0.000855    0.000000
   -5   -3    0   11    7   -0.000109   -0.000000
   -5   -3    0    1    8    0.000396    0.000000
   -5   -3    0    2    8   -0.000164    0.000000
   -5   -3    0    3    8   -0.000132   -0.000000
   -5   -3    0    4    8    0.000296   -0.000000
   -5   -3    0    5    8    0.000084    0.000000
   -5   -3    0    6    8    0.000115   -0.000000
   -5   -3    0    7    8    0.000366    0.000000
   -5   -3    0    8    8    0.000755   -0.000000
   -5   -3    0    9    8    0.000335    0.000000
   -5   -3    0   10    8    0.000301    0.000000
   -5   -3    0   11    8   -0.000822    0.000000
   -5   -3    0    1    9    0.001105   -0.000000
   -5   -3    0    2    9    0.000101   -0.000000
   -5   -3    0    3    9   -0.000078   -0.000000
   -5   -3    0    4    9    0.000676    0.000000
   -5   -3    0    5    9   -0.001150    0.000000
   -5   -3    0    6    9    0.000697    0.000000
   -5   -3    0    7    9   -0.000940    0.000000
   -5   -3    0    8    9   -0.001511    0.000000
   -5   -3    0    9    9   -0.000829    0.000000
   -5   -3    0   10    9   -0.000936    0.000000
   -5   -3    0   11    9   -0.001137   -0.000000
   -5   -3    0    1   10   -0.000714    0.000000
   -5   -3    0    2   10   -0.000129   -0.000000
   -5   -3    0    3   10    0.000150   -0.000000
   -5   -3    0    4   10    0.000078   -0.000000
   -5   -3    0    5   10    0.000204   -0.000000
   -5   -3    0    6   10   -0.000249    0.000000
   -5   -3    0    7   10    0.000855   -0.000000
   -5   -3    0    8   10   -0.000109   -0.000000
   -5   -3    0    9   10    0.000423    0.000000
   -5   -3    0   10   10    0.000438   -0.000000
   -5   -3    0   11   10    0.000493    0.000000
   -5   -3    0    1   11    0.000396   -0.000000
   -5   -3    0    2   11    0.000164    0.000000
   -5   -3    0    3   11    0.000132    0.000000
   -5   -3    0    4   11    0.000296    0.000000
   -5   -3    0    5   11    0.000084   -0.000000
   -5   -3    0    6   11   -0.000335   -0.000000
   -5   -3    0    7   11    0.000301   -0.000000
   -5   -3    0    8   11   -0.000822    0.000000
   -5   -3    0    9   11   -0.000115   -0.000000
   -5   -3    0   10   11    0.000366   -0.000000
   -5   -3    0   11   11    0.000755    0.000000
   -5   -2    0    1    1   -0.000901    0.000000
   -5   -2    0    2    1    0.000000   -0.000000
   -5   -2    0    3    1   -0.000000   -0.000000
   -5   -2    0    4    1   -0.000234   -0.000000
   -5   -2    0    5    1    0.000501   -0.000000
   -5   -2    0    6    1   -0.000853    0.000000
   -5   -2    0    7    1    0.001615    0.000000
   -5   -2    0    8    1    0.000990    0.000000
   -5   -2    0    9    1    0.000853    0.000000
   -5   -2    0   10    1    0.001615   -0.000000
   -5   -2    0   11    1    0.000990    0.000000
   -5   -2    0    1    2   -0.000000    0.000000
   -5   -2    0    2    2    0.000472    0.000000
   -5   -2    0    3    2   -0.000078   -0.000000
   -5   -2    0    4    2    0.000000    0.000000
   -5   -2    0    5    2    0.000000    0.000000
   -5   -2    0    6    2   -0.000343   -0.000000
   -5   -2    0    7    2   -0.000717   -0.000000
   -5   -2    0    8    2    0.000469   -0.000000
   -5   -2    0    9    2   -0.000343    0.000000
   -5   -2    0   10    2    0.000717    0.000000
   -5   -2    0   11    2   -0.000469    0.000000
   -5   -2    0    1    3   -0.000000    0.000000
   -5   -2    0    2    3   -0.001198   -0.000000
   -5   -2    0    3    3   -0.000612   -0.000000
   -5   -2    0    4    3    0.000000   -0.000000
   -5   -2    0    5    3    0.000000   -0.000000
   -5   -2    0    6    3    0.000880   -0.000000
   -5   -2    0    7    3    0.000589    0.000000
   -5   -2    0    8    3    0.000638    0.000000
   -5   -2    0    9    3    0.000880    0.000000
   -5   -2    0   10    3   -0.000589    0.000000
   -5   -2    0   11    3   -0.000638    0.000000
   -5   -2    0    1    4   -0.000086    0.000000
   -5   -2    0    2    4    0.000000   -0.000000
   -5   -2    0    3    4    0.000000    0.000000
   -5   -2    0    4    4   -0.000557   -0.000000
   -5   -2    0    5    4   -0.000053   -0.000000
   -5   -2    0    6    4    0.001391    0.000000
   -5   -2    0    7    4   -0.001620   -0.000000
   -5   -2    0    8    4   -0.000162   -0.000000
   -5   -2    0    9    4   -0.001391    0.000000
   -5   -2    0   10    4   -0.001620    0.000000
   -5   -2    0   11    4   -0.000162    0.000000
   -5   -2    0    1    5    0.002632    0.000000
   -5   -2    0    2    5   -0.000000   -0.000000
   -5   -2    0    3    5   -0.000000   -0.000000
   -5   -2    0    4    5   -0.002452   -0.000000
   -5   -2    0    5    5   -0.000420   -0.000000
   -5   -2    0    6    5    0.001850    0.000000
   -5   -2    0    7    5   -0.003773    0.000000
   -5   -2    0    8    5   -0.001577    0.000000
   -5   -2    0    9    5   -0.001850    0.000000
   -5   -2    0   10    5   -0.003773   -0.000000
   -5   -2    0   11    5   -0.001577   -0.000000
   -5   -2    0    1    6   -0.001077   -0.000000
   -5   -2    0    2    6   -0.000000    0.000000
   -5   -2    0    3    6    0.000152    0.000000
   -5   -2    0    4    6    0.001347    0.000000
   -5   -2    0    5    6   -0.000000   -0.000000
   -5   -2    0    6    6   -0.000852   -0.000000
   -5   -2    0    7    6    0.001427    0.000000
   -5   -2    0    8    6    0.000250   -0.000000
   -5   -2    0    9    6    0.000666   -0.000000
   -5   -2    0   10    6    0.001735   -0.000000
   -5   -2    0   11    6    0.000065   -0.000000
   -5   -2    0    1    7    0.000000   -0.000000
   -5   -2    0    2    7   -0.000296   -0.000000
   -5   -2    0    3    7   -0.000000   -0.000000
   -5   -2    0    4    7    0.000000    0.000000
   -5   -2    0    5    7    0.000338   -0.000000
   -5   -2    0    6    7   -0.000064    0.000000
   -5   -2    0    7    7    0.001046   -0.000000
   -5   -2    0    8    7    0.000022   -0.000000
   -5   -2    0    9    7    0.000441    0.000000
   -5   -2    0   10    7   -0.000324   -0.000000
   -5   -2    0   11    7    0.000939   -0.000000
   -5   -2    0    1    8   -0.000811    0.000000
   -5   -2    0    2    8    0.000000    0.000000
   -5   -2    0    3    8    0.000251   -0.000000
   -5   -2    0    4    8    0.000158    0.000000
   -5   -2    0    5    8   -0.000000   -0.000000
   -5   -2    0    6    8   -0.000417    0.000000
   -5   -2    0    7    8    0.000170    0.000000
   -5   -2    0    8    8    0.000155   -0.000000
   -5   -2    0    9    8    0.000058   -0.000000
   -5   -2    0   10    8    0.000553    0.000000
   -5   -2    0   11    8    0.000352    0.000000
   -5   -2    0    1    9    0.001077   -0.000000
   -5   -2    0    2    9   -0.000000   -0.000000
   -5   -2    0    3    9    0.000152   -0.000000
   -5   -2    0    4    9   -0.001347   -0.000000
   -5   -2    0    5    9   -0.000000   -0.000000
   -5   -2    0    6    9    0.000666    0.000000
   -5   -2    0    7    9   -0.001735    0.000000
   -5   -2    0    8    9   -0.000065   -0.000000
   -5   -2    0    9    9   -0.000852    0.000000
   -5   -2    0   10    9   -0.001427   -0.000000
   -5   -2    0   11    9   -0.000250   -0.000000
   -5   -2    0    1   10    0.000000    0.000000
   -5   -2    0    2   10    0.000296   -0.000000
   -5   -2    0    3   10    0.000000   -0.000000
   -5   -2    0    4   10    0.000000   -0.000000
   -5   -2    0    5   10    0.000338    0.000000
   -5   -2    0    6   10   -0.000441    0.000000
   -5   -2    0    7   10   -0.000324    0.000000
   -5   -2    0    8   10    0.000939    0.000000
   -5   -2    0    9   10    0.000064    0.000000
   -5   -2    0   10   10    0.001046    0.000000
   -5   -2    0   11   10    0.000022    0.000000
   -5   -2    0    1   11   -0.000811   -0.000000
   -5   -2    0    2   11    0.000000   -0.000000
   -5   -2    0    3   11   -0.000251   -0.000000
   -5   -2    0    4   11    0.000158   -0.000000
   -5   -2    0    5   11   -0.000000    0.000000
   -5   -2    0    6   11   -0.000058    0.000000
   -5   -2    0    7   11    0.000553   -0.000000
   -5   -2    0    8   11    0.000352   -0.000000
   -5   -2    0    9   11    0.000417    0.000000
   -5   -2    0   10   11    0.000170   -0.000000
   -5   -2    0   11   11    0.000155    0.000000
   -5   -1    0    1    1   -0.000050    0.000000
   -5   -1    0    2    1    0.000000   -0.000000
   -5   -1    0    3    1    0.000000   -0.000000
   -5   -1    0    4    1    0.001275    0.000000
   -5   -1    0    5    1   -0.000000    0.000000
   -5   -1    0    6    1   -0.000270    0.000000
   -5   -1    0    7    1    0.000668   -0.000000
   -5   -1    0    8    1    0.000347   -0.000000
   -5   -1    0    9    1    0.000270    0.000000
   -5   -1    0   10    1    0.000668   -0.000000
   -5   -1    0   11    1    0.000347    0.000000
   -5   -1    0    1    2   -0.000000    0.000000
   -5   -1    0    2    2   -0.000771   -0.000000
   -5   -1    0    3    2   -0.000000   -0.000000
   -5   -1    0    4    2   -0.000000    0.000000
   -5   -1    0    5    2    0.000000    0.000000
   -5   -1    0    6    2    0.000221   -0.000000
   -5   -1    0    7    2    0.001097   -0.000000
   -5   -1    0    8    2   -0.000641    0.000000
   -5   -1    0    9    2    0.000221    0.000000
   -5   -1    0   10    2   -0.001097   -0.000000
   -5   -1    0   11    2    0.000641   -0.000000
   -5   -1    0    1    3    0.000000    0.000000
   -5   -1    0    2    3    0.000000    0.000000
   -5   -1    0    3    3    0.000606    0.000000
   -5   -1    0    4    3    0.000000    0.000000
   -5   -1    0    5    3   -0.000000   -0.000000
   -5   -1    0    6    3   -0.000226    0.000000
   -5   -1    0    7    3   -0.000329    0.000000
   -5   -1    0    8    3    0.000625   -0.000000
   -5   -1    0    9    3   -0.000226   -0.000000
   -5   -1    0   10    3    0.000329   -0.000000
   -5   -1    0   11    3   -0.000625   -0.000000
   -5   -1    0    1    4    0.000594   -0.000000
   -5   -1    0    2    4   -0.000000   -0.000000
   -5   -1    0    3    4    0.000000    0.000000
   -5   -1    0    4    4   -0.002384    0.000000
   -5   -1    0    5    4   -0.000000   -0.000000
   -5   -1    0    6    4   -0.000049   -0.000000
   -5   -1    0    7    4    0.000631    0.000000
   -5   -1    0    8    4    0.000038    0.000000
   -5   -1    0    9    4    0.000049   -0.000000
   -5   -1    0   10    4    0.000631   -0.000000
   -5   -1    0   11    4    0.000038   -0.000000
   -5   -1    0    1    5    0.000000   -0.000000
   -5   -1    0    2    5   -0.000000   -0.000000
   -5   -1    0    3    5    0.000000    0.000000
   -5   -1    0    4    5   -0.000000    0.000000
   -5   -1    0    5    5    0.001602    0.000000
   -5   -1    0    6    5   -0.000285   -0.000000
   -5   -1    0    7    5   -0.001068   -0.000000
   -5   -1    0    8    5   -0.000732   -0.000000
   -5   -1    0    9    5    0.000285   -0.000000
   -5   -1    0   10    5   -0.001068    0.000000
   -5   -1    0   11    5   -0.000732   -0.000000
   -5   -1    0    1    6    0.000864    0.000000
   -5   -1    0    2    6    0.000487   -0.000000
   -5   -1    0    3    6   -0.000396   -0.000000
   -5   -1    0    4    6   -0.001072   -0.000000
   -5   -1    0    5    6   -0.001173   -0.000000
   -5   -1    0    6    6    0.000371    0.000000
   -5   -1    0    7    6    0.000000    0.000000
   -5   -1    0    8    6    0.000141   -0.000000
   -5   -1    0    9    6   -0.000360    0.000000
   -5   -1    0   10    6   -0.000000    0.000000
   -5   -1    0   11    6    0.000744    0.000000
   -5   -1    0    1    7   -0.001836   -0.000000
   -5   -1    0    2    7    0.000560    0.000000
   -5   -1    0    3    7   -0.000607   -0.000000
   -5   -1    0    4    7    0.001705   -0.000000
   -5   -1    0    5    7    0.000588    0.000000
   -5   -1    0    6    7    0.000000    0.000000
   -5   -1    0    7    7    0.000036   -0.000000
   -5   -1    0    8    7   -0.000000   -0.000000
   -5   -1    0    9    7    0.000000    0.000000
   -5   -1    0   10    7    0.000942   -0.000000
   -5   -1    0   11    7    0.000000    0.000000
   -5   -1    0    1    8    0.000646    0.000000
   -5   -1    0    2    8   -0.000436   -0.000000
   -5   -1    0    3    8    0.000024   -0.000000
   -5   -1    0    4    8   -0.000167   -0.000000
   -5   -1    0    5    8   -0.000059   -0.000000
   -5   -1    0    6    8    0.000069    0.000000
   -5   -1    0    7    8   -0.000000    0.000000
   -5   -1    0    8    8    0.000481   -0.000000
   -5   -1    0    9    8   -0.000146    0.000000
   -5   -1    0   10    8    0.000000    0.000000
   -5   -1    0   11    8   -0.000470    0.000000
   -5   -1    0    1    9   -0.000864   -0.000000
   -5   -1    0    2    9    0.000487    0.000000
   -5   -1    0    3    9   -0.000396    0.000000
   -5   -1    0    4    9    0.001072   -0.000000
   -5   -1    0    5    9    0.001173   -0.000000
   -5   -1    0    6    9   -0.000359   -0.000000
   -5   -1    0    7    9    0.000000   -0.000000
   -5   -1    0    8    9   -0.000744    0.000000
   -5   -1    0    9    9    0.000371   -0.000000
   -5   -1    0   10    9    0.000000    0.000000
   -5   -1    0   11    9   -0.000141    0.000000
   -5   -1    0    1   10   -0.001836    0.000000
   -5   -1    0    2   10   -0.000560    0.000000
   -5   -1    0    3   10    0.000607    0.000000
   -5   -1    0    4   10    0.001705    0.000000
   -5   -1    0    5   10    0.000588   -0.000000
   -5   -1    0    6   10   -0.000000   -0.000000
   -5   -1    0    7   10    0.000942    0.000000
   -5   -1    0    8   10    0.000000   -0.000000
   -5   -1    0    9   10   -0.000000   -0.000000
   -5   -1    0   10   10    0.000036    0.000000
   -5   -1    0   11   10   -0.000000    0.000000
   -5   -1    0    1   11    0.000646   -0.000000
   -5   -1    0    2   11    0.000436    0.000000
   -5   -1    0    3   11   -0.000024   -0.000000
   -5   -1    0    4   11   -0.000167    0.000000
   -5   -1    0    5   11   -0.000059   -0.000000
   -5   -1    0    6   11    0.000146   -0.000000
   -5   -1    0    7   11    0.000000    0.000000
   -5   -1    0    8   11   -0.000470   -0.000000
   -5   -1    0    9   11   -0.000069   -0.000000
   -5   -1    0   10   11   -0.000000   -0.000000
   -5   -1    0   11   11    0.000481    0.000000
   -4   -4    0    1    1    0.001182    0.000000
   -4   -4    0    2    1   -0.000000   -0.000000
   -4   -4    0    3    1   -0.000000   -0.000000
   -4   -4    0    4    1    0.002820   -0.000000
   -4   -4    0    5    1   -0.000744   -0.000000
   -4   -4    0    6    1   -0.002673   -0.000000
   -4   -4    0    7    1   -0.002402   -0.000000
   -4   -4    0    8    1    0.001811    0.000000
   -4   -4    0    9    1    0.002673   -0.000000
   -4   -4    0   10    1   -0.002402    0.000000
   -4   -4    0   11    1    0.001811   -0.000000
   -4   -4    0    1    2   -0.000000    0.000000
   -4   -4    0    2    2   -0.001359   -0.000000
   -4   -4    0    3    2    0.000652   -0.000000
   -4   -4    0    4    2    0.000000   -0.000000
   -4   -4    0    5    2   -0.000000    0.000000
   -4   -4    0    6    2    0.000514    0.000000
   -4   -4    0    7    2    0.000320    0.000000
   -4   -4    0    8    2    0.000964   -0.000000
   -4   -4    0    9    2    0.000514   -0.000000
   -4   -4    0   10    2   -0.000320    0.000000
   -4   -4    0   11    2   -0.000964   -0.000000
   -4   -4    0    1    3    0.000000    0.000000
   -4   -4    0    2    3    0.002174   -0.000000
   -4   -4    0    3    3    0.000233   -0.000000
   -4   -4    0    4    3    0.000000   -0.000000
   -4   -4    0    5    3    0.000000    0.000000
   -4   -4    0    6    3   -0.000875   -0.000000
   -4   -4    0    7    3   -0.001338   -0.000000
   -4   -4    0    8    3   -0.002447   -0.000000
   -4   -4    0    9    3   -0.000875    0.000000
   -4   -4    0   10    3    0.001338   -0.000000
   -4   -4    0   11    3    0.002447    0.000000
   -4   -4    0    1    4   -0.000756    0.000000
   -4   -4    0    2    4    0.000000   -0.000000
   -4   -4    0    3    4   -0.000000   -0.000000
   -4   -4    0    4    4   -0.000755    0.000000
   -4   -4    0    5    4    0.000467    0.000000
   -4   -4    0    6    4   -0.000572    0.000000
   -4   -4    0    7    4   -0.000032    0.000000
   -4   -4    0    8    4    0.000870   -0.000000
   -4   -4    0    9    4    0.000572    0.000000
   -4   -4    0   10    4   -0.000032   -0.000000
   -4   -4    0   11    4    0.000870    0.000000
   -4   -4    0    1    5   -0.002842   -0.000000
   -4   -4    0    2    5    0.000000    0.000000
   -4   -4    0    3    5    0.000000   -0.000000
   -4   -4    0    4    5   -0.004700   -0.000000
   -4   -4    0    5    5    0.001711   -0.000000
   -4   -4    0    6    5    0.005917    0.000000
   -4   -4    0    7    5    0.001132    0.000000
   -4   -4    0    8    5   -0.003769   -0.000000
   -4   -4    0    9    5   -0.005917    0.000000
   -4   -4    0   10    5    0.001132   -0.000000
   -4   -4    0   11    5   -0.003769    0.000000
   -4   -4    0    1    6    0.001064    0.000000
   -4   -4    0    2    6    0.000480    0.000000
   -4   -4    0    3    6   -0.000306    0.000000
   -4   -4    0    4    6    0.001216    0.000000
   -4   -4    0    5    6   -0.002122   -0.000000
   -4   -4    0    6    6   -0.001263   -0.000000
   -4   -4    0    7    6    0.000005    0.000000
   -4   -4    0    8    6    0.000724   -0.000000
   -4   -4    0    9    6    0.001072   -0.000000
   -4   -4    0   10    6    0.000283    0.000000
   -4   -4    0   11    6    0.001342   -0.000000
   -4   -4    0    1    7    0.001058   -0.000000
   -4   -4    0    2    7   -0.000591   -0.000000
   -4   -4    0    3    7   -0.000371   -0.000000
   -4   -4    0    4    7    0.000476    0.000000
   -4   -4    0    5    7   -0.001329   -0.000000
   -4   -4    0    6    7   -0.000611    0.000000
   -4   -4    0    7    7    0.000689    0.000000
   -4   -4    0    8    7    0.002296    0.000000
   -4   -4    0    9    7    0.001010    0.000000
   -4   -4    0   10    7    0.000293    0.000000
   -4   -4    0   11    7    0.000208   -0.000000
   -4   -4    0    1    8   -0.000578   -0.000000
   -4   -4    0    2    8   -0.000389    0.000000
   -4   -4    0    3    8   -0.001168    0.000000
   -4   -4    0    4    8   -0.000772    0.000000
   -4   -4    0    5    8    0.000442   -0.000000
   -4   -4    0    6    8   -0.000395   -0.000000
   -4   -4    0    7    8    0.001576   -0.000000
   -4   -4    0    8    8    0.002969    0.000000
   -4   -4    0    9    8    0.000877   -0.000000
   -4   -4    0   10    8    0.000486   -0.000000
   -4   -4    0   11    8    0.000657   -0.000000
   -4   -4    0    1    9   -0.001064    0.000000
   -4   -4    0    2    9    0.000480   -0.000000
   -4   -4    0    3    9   -0.000306   -0.000000
   -4   -4    0    4    9   -0.001216    0.000000
   -4   -4    0    5    9    0.002122   -0.000000
   -4   -4    0    6    9    0.001072    0.000000
   -4   -4    0    7    9   -0.000283   -0.000000
   -4   -4    0    8    9   -0.001342    0.000000
   -4   -4    0    9    9   -0.001263    0.000000
   -4   -4    0   10    9   -0.000005    0.000000
   -4   -4    0   11    9   -0.000724   -0.000000
   -4   -4    0    1   10    0.001058    0.000000
   -4   -4    0    2   10    0.000591   -0.000000
   -4   -4    0    3   10    0.000371   -0.000000
   -4   -4    0    4   10    0.000476   -0.000000
   -4   -4    0    5   10   -0.001329   -0.000000
   -4   -4    0    6   10   -0.001010    0.000000
   -4   -4    0    7   10    0.000293    0.000000
   -4   -4    0    8   10    0.000208    0.000000
   -4   -4    0    9   10    0.000611    0.000000
   -4   -4    0   10   10    0.000689   -0.000000
   -4   -4    0   11   10    0.002296   -0.000000
   -4   -4    0    1   11   -0.000578    0.000000
   -4   -4    0    2   11    0.000389    0.000000
   -4   -4    0    3   11    0.001168    0.000000
   -4   -4    0    4   11   -0.000772   -0.000000
   -4   -4    0    5   11    0.000442    0.000000
   -4   -4    0    6   11   -0.000877   -0.000000
   -4   -4    0    7   11    0.000486    0.000000
   -4   -4    0    8   11    0.000657   -0.000000
   -4   -4    0    9   11    0.000395   -0.000000
   -4   -4    0   10   11    0.001576    0.000000
   -4   -4    0   11   11    0.002969   -0.000000
   -4   -3    0    1    1    0.002525    0.000000
   -4   -3    0    2    1   -0.000000   -0.000000
   -4   -3    0    3    1   -0.000000   -0.000000
   -4   -3    0    4    1    0.000957    0.000000
   -4   -3    0    5    1   -0.000222   -0.000000
   -4   -3    0    6    1    0.001277    0.000000
   -4   -3    0    7    1   -0.002758    0.000000
   -4   -3    0    8    1   -0.004626   -0.000000
   -4   -3    0    9    1   -0.001277    0.000000
   -4   -3    0   10    1   -0.002758   -0.000000
   -4   -3    0   11    1   -0.004626    0.000000
   -4   -3    0    1    2    0.000000    0.000000
   -4   -3    0    2    2    0.000333    0.000000
   -4   -3    0    3    2   -0.000837    0.000000
   -4   -3    0    4    2    0.000000   -0.000000
   -4   -3    0    5    2   -0.000000   -0.000000
   -4   -3    0    6    2    0.000301   -0.000000
   -4   -3    0    7    2    0.000411    0.000000
   -4   -3    0    8    2    0.000447    0.000000
   -4   -3    0    9    2    0.000301    0.000000
   -4   -3    0   10    2   -0.000411    0.000000
   -4   -3    0   11    2   -0.000447    0.000000
   -4   -3    0    1    3   -0.000000    0.000000
   -4   -3    0    2    3   -0.003024    0.000000
   -4   -3    0    3    3    0.000389    0.000000
   -4   -3    0    4    3    0.000000   -0.000000
   -4   -3    0    5    3   -0.000000    0.000000
   -4   -3    0    6    3    0.002722   -0.000000
   -4   -3    0    7    3    0.000687    0.000000
   -4   -3    0    8    3    0.002737    0.000000
   -4   -3    0    9    3    0.002722    0.000000
   -4   -3    0   10    3   -0.000687    0.000000
   -4   -3    0   11    3   -0.002737    0.000000
   -4   -3    0    1    4   -0.002060   -0.000000
   -4   -3    0    2    4    0.000000   -0.000000
   -4   -3    0    3    4    0.000000   -0.000000
   -4   -3    0    4    4   -0.001469    0.000000
   -4   -3    0    5    4    0.000586   -0.000000
   -4   -3    0    6    4   -0.000293    0.000000
   -4   -3    0    7    4    0.003856    0.000000
   -4   -3    0    8    4    0.003174   -0.000000
   -4   -3    0    9    4    0.000293    0.000000
   -4   -3    0   10    4    0.003856   -0.000000
   -4   -3    0   11    4    0.003174   -0.000000
   -4   -3    0    1    5   -0.001827    0.000000
   -4   -3    0    2    5    0.000000   -0.000000
   -4   -3    0    3    5    0.000000   -0.000000
   -4   -3    0    4    5   -0.003355    0.000000
   -4   -3    0    5    5    0.003658   -0.000000
   -4   -3    0    6    5   -0.002324    0.000000
   -4   -3    0    7    5    0.002897    0.000000
   -4   -3    0    8    5    0.003490   -0.000000
   -4   -3    0    9    5    0.002324    0.000000
   -4   -3    0   10    5    0.002897   -0.000000
   -4   -3    0   11    5    0.003490    0.000000
   -4   -3    0    1    6    0.000873   -0.000000
   -4   -3    0    2    6   -0.000560   -0.000000
   -4   -3    0    3    6   -0.000237    0.000000
   -4   -3    0    4    6    0.001571    0.000000
   -4   -3    0    5    6   -0.000322    0.000000
   -4   -3    0    6    6    0.000729    0.000000
   -4   -3    0    7    6   -0.001274   -0.000000
   -4   -3    0    8    6   -0.001331   -0.000000
   -4   -3    0    9    6   -0.000523    0.000000
   -4   -3    0   10    6   -0.001323   -0.000000
   -4   -3    0   11    6   -0.002083   -0.000000
   -4   -3    0    1    7    0.001490   -0.000000
   -4   -3    0    2    7    0.000597   -0.000000
   -4   -3    0    3    7    0.000369    0.000000
   -4   -3    0    4    7    0.000802    0.000000
   -4   -3    0    5    7   -0.000711   -0.000000
   -4   -3    0    6    7   -0.000904    0.000000
   -4   -3    0    7    7   -0.001138   -0.000000
   -4   -3    0    8    7    0.000153   -0.000000
   -4   -3    0    9    7   -0.000642    0.000000
   -4   -3    0   10    7   -0.000148   -0.000000
   -4   -3    0   11    7    0.000649    0.000000
   -4   -3    0    1    8    0.001275    0.000000
   -4   -3    0    2    8    0.000570   -0.000000
   -4   -3    0    3    8    0.000002   -0.000000
   -4   -3    0    4    8    0.001119   -0.000000
   -4   -3    0    5    8   -0.000983    0.000000
   -4   -3    0    6    8   -0.000621   -0.000000
   -4   -3    0    7    8    0.000523   -0.000000
   -4   -3    0    8    8   -0.001428    0.000000
   -4   -3    0    9    8   -0.000093    0.000000
   -4   -3    0   10    8   -0.000394   -0.000000
   -4   -3    0   11    8    0.001042    0.000000
   -4   -3    0    1    9   -0.000873   -0.000000
   -4   -3    0    2    9   -0.000560    0.000000
   -4   -3    0    3    9   -0.000237    0.000000
   -4   -3    0    4    9   -0.001571    0.000000
   -4   -3    0    5    9    0.000322    0.000000
   -4   -3    0    6    9   -0.000523   -0.000000
   -4   -3    0    7    9    0.001323   -0.000000
   -4   -3    0    8    9    0.002083   -0.000000
   -4   -3    0    9    9    0.000729   -0.000000
   -4   -3    0   10    9    0.001274   -0.000000
   -4   -3    0   11    9    0.001331   -0.000000
   -4   -3    0    1   10    0.001490    0.000000
   -4   -3    0    2   10   -0.000597   -0.000000
   -4   -3    0    3   10   -0.000369   -0.000000
   -4   -3    0    4   10    0.000802   -0.000000
   -4   -3    0    5   10   -0.000711    0.000000
   -4   -3    0    6   10    0.000642    0.000000
   -4   -3    0    7   10   -0.000148    0.000000
   -4   -3    0    8   10    0.000649    0.000000
   -4   -3    0    9   10    0.000904    0.000000
   -4   -3    0   10   10   -0.001138    0.000000
   -4   -3    0   11   10    0.000153    0.000000
   -4   -3    0    1   11    0.001275   -0.000000
   -4   -3    0    2   11   -0.000570   -0.000000
   -4   -3    0    3   11   -0.000002   -0.000000
   -4   -3    0    4   11    0.001119   -0.000000
   -4   -3    0    5   11   -0.000983   -0.000000
   -4   -3    0    6   11    0.000093    0.000000
   -4   -3    0    7   11   -0.000394    0.000000
   -4   -3    0    8   11    0.001042   -0.000000
   -4   -3    0    9   11    0.000621    0.000000
   -4   -3    0   10   11    0.000523    0.000000
   -4   -3    0   11   11   -0.001428   -0.000000
   -4   -2    0    1    1   -0.000159   -0.000000
   -4   -2    0    2    1   -0.000000   -0.000000
   -4   -2    0    3    1   -0.000000   -0.000000
   -4   -2    0    4    1   -0.001010    0.000000
   -4   -2    0    5    1   -0.001789   -0.000000
   -4   -2    0    6    1    0.004437    0.000000
   -4   -2    0    7    1   -0.003542    0.000000
   -4   -2    0    8    1   -0.002138   -0.000000
   -4   -2    0    9    1   -0.004437    0.000000
   -4   -2    0   10    1   -0.003542   -0.000000
   -4   -2    0   11    1   -0.002138    0.000000
   -4   -2    0    1    2    0.000000   -0.000000
   -4   -2    0    2    2    0.001116   -0.000000
   -4   -2    0    3    2    0.001826    0.000000
   -4   -2    0    4    2    0.000000    0.000000
   -4   -2    0    5    2   -0.000000   -0.000000
   -4   -2    0    6    2   -0.001170    0.000000
   -4   -2    0    7    2   -0.000861    0.000000
   -4   -2    0    8    2    0.000201    0.000000
   -4   -2    0    9    2   -0.001170   -0.000000
   -4   -2    0   10    2    0.000861    0.000000
   -4   -2    0   11    2   -0.000201   -0.000000
   -4   -2    0    1    3    0.000000    0.000000
   -4   -2    0    2    3    0.001805   -0.000000
   -4   -2    0    3    3   -0.001021   -0.000000
   -4   -2    0    4    3   -0.000000    0.000000
   -4   -2    0    5    3    0.000000    0.000000
   -4   -2    0    6    3   -0.000709   -0.000000
   -4   -2    0    7    3    0.000282    0.000000
   -4   -2    0    8    3   -0.001231    0.000000
   -4   -2    0    9    3   -0.000709   -0.000000
   -4   -2    0   10    3   -0.000282   -0.000000
   -4   -2    0   11    3    0.001231    0.000000
   -4   -2    0    1    4   -0.003625   -0.000000
   -4   -2    0    2    4    0.000000    0.000000
   -4   -2    0    3    4    0.000000    0.000000
   -4   -2    0    4    4   -0.000784    0.000000
   -4   -2    0    5    4    0.002429    0.000000
   -4   -2    0    6    4   -0.003090   -0.000000
   -4   -2    0    7    4    0.006398   -0.000000
   -4   -2    0    8    4    0.002086   -0.000000
   -4   -2    0    9    4    0.003090   -0.000000
   -4   -2    0   10    4    0.006398    0.000000
   -4   -2    0   11    4    0.002086    0.000000
   -4   -2    0    1    5   -0.006214    0.000000
   -4   -2    0    2    5    0.000000    0.000000
   -4   -2    0    3    5    0.000000   -0.000000
   -4   -2    0    4    5    0.002416   -0.000000
   -4   -2    0    5    5    0.001942   -0.000000
   -4   -2    0    6    5   -0.005546   -0.000000
   -4   -2    0    7    5    0.009428   -0.000000
   -4   -2    0    8    5    0.006655   -0.000000
   -4   -2    0    9    5    0.005546   -0.000000
   -4   -2    0   10    5    0.009428    0.000000
   -4   -2    0   11    5    0.006655    0.000000
   -4   -2    0    1    6    0.001987   -0.000000
   -4   -2    0    2    6    0.000067   -0.000000
   -4   -2    0    3    6    0.000042   -0.000000
   -4   -2    0    4    6   -0.000934   -0.000000
   -4   -2    0    5    6   -0.001625    0.000000
   -4   -2    0    6    6    0.002031    0.000000
   -4   -2    0    7    6   -0.003050   -0.000000
   -4   -2    0    8    6   -0.001789   -0.000000
   -4   -2    0    9    6   -0.002608    0.000000
   -4   -2    0   10    6   -0.002737   -0.000000
   -4   -2    0   11    6   -0.001623   -0.000000
   -4   -2    0    1    7    0.000534    0.000000
   -4   -2    0    2    7   -0.001263   -0.000000
   -4   -2    0    3    7   -0.000645   -0.000000
   -4   -2    0    4    7   -0.000657   -0.000000
   -4   -2    0    5    7   -0.000906   -0.000000
   -4   -2    0    6    7    0.001017    0.000000
   -4   -2    0    7    7    0.001316    0.000000
   -4   -2    0    8    7    0.000344    0.000000
   -4   -2    0    9    7    0.000583    0.000000
   -4   -2    0   10    7   -0.001567    0.000000
   -4   -2    0   11    7   -0.000562   -0.000000
   -4   -2    0    1    8    0.000325    0.000000
   -4   -2    0    2    8   -0.000648   -0.000000
   -4   -2    0    3    8   -0.000592   -0.000000
   -4   -2    0    4    8   -0.000173    0.000000
   -4   -2    0    5    8   -0.000657    0.000000
   -4   -2    0    6    8    0.000582    0.000000
   -4   -2    0    7    8    0.000337   -0.000000
   -4   -2    0    8    8    0.000860   -0.000000
   -4   -2    0    9    8    0.000338    0.000000
   -4   -2    0   10    8   -0.000589    0.000000
   -4   -2    0   11    8   -0.000892   -0.000000
   -4   -2    0    1    9   -0.001987   -0.000000
   -4   -2    0    2    9    0.000067    0.000000
   -4   -2    0    3    9    0.000042    0.000000
   -4   -2    0    4    9    0.000934   -0.000000
   -4   -2    0    5    9    0.001625    0.000000
   -4   -2    0    6    9   -0.002608   -0.000000
   -4   -2    0    7    9    0.002737   -0.000000
   -4   -2    0    8    9    0.001623   -0.000000
   -4   -2    0    9    9    0.002031   -0.000000
   -4   -2    0   10    9    0.003050   -0.000000
   -4   -2    0   11    9    0.001789    0.000000
   -4   -2    0    1   10    0.000534   -0.000000
   -4   -2    0    2   10    0.001263    0.000000
   -4   -2    0    3   10    0.000645    0.000000
   -4   -2    0    4   10   -0.000657    0.000000
   -4   -2    0    5   10   -0.000906    0.000000
   -4   -2    0    6   10   -0.000583    0.000000
   -4   -2    0    7   10   -0.001567   -0.000000
   -4   -2    0    8   10   -0.000562    0.000000
   -4   -2    0    9   10   -0.001017   -0.000000
   -4   -2    0   10   10    0.001316   -0.000000
   -4   -2    0   11   10    0.000344   -0.000000
   -4   -2    0    1   11    0.000325   -0.000000
   -4   -2    0    2   11    0.000648    0.000000
   -4   -2    0    3   11    0.000592   -0.000000
   -4   -2    0    4   11   -0.000173   -0.000000
   -4   -2    0    5   11   -0.000657   -0.000000
   -4   -2    0    6   11   -0.000338    0.000000
   -4   -2    0    7   11   -0.000589   -0.000000
   -4   -2    0    8   11   -0.000892   -0.000000
   -4   -2    0    9   11   -0.000582    0.000000
   -4   -2    0   10   11    0.000337    0.000000
   -4   -2    0   11   11    0.000860    0.000000
   -4   -1    0    1    1    0.002526    0.000000
   -4   -1    0    2    1   -0.000000    0.000000
   -4   -1    0    3    1    0.000000    0.000000
   -4   -1    0    4    1   -0.000697    0.000000
   -4   -1    0    5    1    0.000642    0.000000
   -4   -1    0    6    1    0.001275   -0.000000
   -4   -1    0    7    1   -0.005423   -0.000000
   -4   -1    0    8    1   -0.000151    0.000000
   -4   -1    0    9    1   -0.001275   -0.000000
   -4   -1    0   10    1   -0.005423    0.000000
   -4   -1    0   11    1   -0.000151   -0.000000
   -4   -1    0    1    2   -0.000000   -0.000000
   -4   -1    0    2    2   -0.001257    0.000000
   -4   -1    0    3    2   -0.002049   -0.000000
   -4   -1    0    4    2   -0.000000    0.000000
   -4   -1    0    5    2   -0.000000   -0.000000
   -4   -1    0    6    2    0.002487   -0.000000
   -4   -1    0    7    2    0.002602    0.000000
   -4   -1    0    8    2   -0.000424   -0.000000
   -4   -1    0    9    2    0.002487    0.000000
   -4   -1    0   10    2   -0.002602   -0.000000
   -4   -1    0   11    2    0.000424    0.000000
   -4   -1    0    1    3    0.000000   -0.000000
   -4   -1    0    2    3    0.000101    0.000000
   -4   -1    0    3    3    0.002003    0.000000
   -4   -1    0    4    3   -0.000000   -0.000000
   -4   -1    0    5    3   -0.000000    0.000000
   -4   -1    0    6    3   -0.001103   -0.000000
   -4   -1    0    7    3   -0.000825   -0.000000
   -4   -1    0    8    3    0.000338   -0.000000
   -4   -1    0    9    3   -0.001103   -0.000000
   -4   -1    0   10    3    0.000825    0.000000
   -4   -1    0   11    3   -0.000338   -0.000000
   -4   -1    0    1    4   -0.000489   -0.000000
   -4   -1    0    2    4    0.000000    0.000000
   -4   -1    0    3    4    0.000000    0.000000
   -4   -1    0    4    4    0.003614    0.000000
   -4   -1    0    5    4   -0.000320   -0.000000
   -4   -1    0    6    4   -0.001942   -0.000000
   -4   -1    0    7    4    0.001629   -0.000000
   -4   -1    0    8    4   -0.000258    0.000000
   -4   -1    0    9    4    0.001942   -0.000000
   -4   -1    0   10    4    0.001629   -0.000000
   -4   -1    0   11    4   -0.000258   -0.000000
   -4   -1    0    1    5   -0.002659    0.000000
   -4   -1    0    2    5    0.000000   -0.000000
   -4   -1    0    3    5    0.000000    0.000000
   -4   -1    0    4    5    0.003474   -0.000000
   -4   -1    0    5    5   -0.001413   -0.000000
   -4   -1    0    6    5   -0.001481    0.000000
   -4   -1    0    7    5    0.006325   -0.000000
   -4   -1    0    8    5    0.001997    0.000000
   -4   -1    0    9    5    0.001481    0.000000
   -4   -1    0   10    5    0.006325    0.000000
   -4   -1    0   11    5    0.001997   -0.000000
   -4   -1    0    1    6    0.000864    0.000000
   -4   -1    0    2    6   -0.000487   -0.000000
   -4   -1    0    3    6   -0.000396   -0.000000
   -4   -1    0    4    6   -0.001072    0.000000
   -4   -1    0    5    6    0.001173    0.000000
   -4   -1    0    6    6    0.000731    0.000000
   -4   -1    0    7    6   -0.001765    0.000000
   -4   -1    0    8    6   -0.000445    0.000000
   -4   -1    0    9    6   -0.000486    0.000000
   -4   -1    0   10    6   -0.002445    0.000000
   -4   -1    0   11    6   -0.000109    0.000000
   -4   -1    0    1    7    0.001836    0.000000
   -4   -1    0    2    7    0.000560   -0.000000
   -4   -1    0    3    7    0.000607    0.000000
   -4   -1    0    4    7   -0.001705    0.000000
   -4   -1    0    5    7    0.000588   -0.000000
   -4   -1    0    6    7   -0.000954    0.000000
   -4   -1    0    7    7   -0.001044   -0.000000
   -4   -1    0    8    7    0.000488    0.000000
   -4   -1    0    9    7   -0.000419   -0.000000
   -4   -1    0   10    7    0.000871    0.000000
   -4   -1    0   11    7   -0.000975   -0.000000
   -4   -1    0    1    8    0.000646   -0.000000
   -4   -1    0    2    8    0.000436    0.000000
   -4   -1    0    3    8    0.000024    0.000000
   -4   -1    0    4    8   -0.000167    0.000000
   -4   -1    0    5    8    0.000059    0.000000
   -4   -1    0    6    8   -0.000463   -0.000000
   -4   -1    0    7    8    0.000111   -0.000000
   -4   -1    0    8    8   -0.001542   -0.000000
   -4   -1    0    9    8   -0.000488   -0.000000
   -4   -1    0   10    8    0.000068   -0.000000
   -4   -1    0   11    8    0.000066   -0.000000
   -4   -1    0    1    9   -0.000864    0.000000
   -4   -1    0    2    9   -0.000487    0.000000
   -4   -1    0    3    9   -0.000396    0.000000
   -4   -1    0    4    9    0.001072    0.000000
   -4   -1    0    5    9   -0.001173    0.000000
   -4   -1    0    6    9   -0.000486   -0.000000
   -4   -1    0    7    9    0.002445   -0.000000
   -4   -1    0    8    9    0.000109    0.000000
   -4   -1    0    9    9    0.000731   -0.000000
   -4   -1    0   10    9    0.001765    0.000000
   -4   -1    0   11    9    0.000445    0.000000
   -4   -1    0    1   10    0.001836   -0.000000
   -4   -1    0    2   10   -0.000560   -0.000000
   -4   -1    0    3   10   -0.000607   -0.000000
   -4   -1    0    4   10   -0.001705   -0.000000
   -4   -1    0    5   10    0.000588    0.000000
   -4   -1    0    6   10    0.000419    0.000000
   -4   -1    0    7   10    0.000871   -0.000000
   -4   -1    0    8   10   -0.000975    0.000000
   -4   -1    0    9   10    0.000954    0.000000
   -4   -1    0   10   10   -0.001044    0.000000
   -4   -1    0   11   10    0.000488   -0.000000
   -4   -1    0    1   11    0.000646    0.000000
   -4   -1    0    2   11   -0.000436   -0.000000
   -4   -1    0    3   11   -0.000024    0.000000
   -4   -1    0    4   11   -0.000167   -0.000000
   -4   -1    0    5   11    0.000059   -0.000000
   -4   -1    0    6   11    0.000488   -0.000000
   -4   -1    0    7   11    0.000068    0.000000
   -4   -1    0    8   11    0.000066    0.000000
   -4   -1    0    9   11    0.000463   -0.000000
   -4   -1    0   10   11    0.000111    0.000000
   -4   -1    0   11   11   -0.001542   -0.000000
   -4    0    0    1    1    0.001170   -0.000000
   -4    0    0    2    1   -0.000000    0.000000
   -4    0    0    3    1   -0.000000    0.000000
   -4    0    0    4    1   -0.002060    0.000000
   -4    0    0    5    1    0.002035   -0.000000
   -4    0    0    6    1   -0.002624   -0.000000
   -4    0    0    7    1    0.000475   -0.000000
   -4    0    0    8    1   -0.002996    0.000000
   -4    0    0    9    1    0.002624   -0.000000
   -4    0    0   10    1    0.000475    0.000000
   -4    0    0   11    1   -0.002996   -0.000000
   -4    0    0    1    2    0.000000   -0.000000
   -4    0    0    2    2    0.000993   -0.000000
   -4    0    0    3    2    0.000761   -0.000000
   -4    0    0    4    2   -0.000000   -0.000000
   -4    0    0    5    2    0.000000   -0.000000
   -4    0    0    6    2   -0.000491   -0.000000
   -4    0    0    7    2   -0.001953   -0.000000
   -4    0    0    8    2   -0.000173   -0.000000
   -4    0    0    9    2   -0.000491    0.000000
   -4    0    0   10    2    0.001953   -0.000000
   -4    0    0   11    2    0.000173   -0.000000
   -4    0    0    1    3   -0.000000   -0.000000
   -4    0    0    2    3   -0.000761   -0.000000
   -4    0    0    3    3   -0.002179   -0.000000
   -4    0    0    4    3   -0.000000   -0.000000
   -4    0    0    5    3   -0.000000   -0.000000
   -4    0    0    6    3    0.000917    0.000000
   -4    0    0    7    3    0.002220   -0.000000
   -4    0    0    8    3   -0.000115    0.000000
   -4    0    0    9    3    0.000917   -0.000000
   -4    0    0   10    3   -0.002220   -0.000000
   -4    0    0   11    3    0.000115   -0.000000
   -4    0    0    1    4   -0.002060    0.000000
   -4    0    0    2    4    0.000000   -0.000000
   -4    0    0    3    4   -0.000000   -0.000000
   -4    0    0    4    4    0.002974    0.000000
   -4    0    0    5    4   -0.002609   -0.000000
   -4    0    0    6    4    0.005415    0.000000
   -4    0    0    7    4   -0.002734   -0.000000
   -4    0    0    8    4    0.002727   -0.000000
   -4    0    0    9    4   -0.005415    0.000000
   -4    0    0   10    4   -0.002734    0.000000
   -4    0    0   11    4    0.002727    0.000000
   -4    0    0    1    5   -0.002035    0.000000
   -4    0    0    2    5   -0.000000   -0.000000
   -4    0    0    3    5    0.000000   -0.000000
   -4    0    0    4    5    0.002609    0.000000
   -4    0    0    5    5   -0.001973    0.000000
   -4    0    0    6    5    0.002466    0.000000
   -4    0    0    7    5   -0.000745    0.000000
   -4    0    0    8    5    0.001007    0.000000
   -4    0    0    9    5   -0.002466    0.000000
   -4    0    0   10    5   -0.000745    0.000000
   -4    0    0   11    5    0.001007   -0.000000
   -4    0    0    1    6    0.001041    0.000000
   -4    0    0    2    6    0.000000   -0.000000
   -4    0    0    3    6    0.000592    0.000000
   -4    0    0    4    6   -0.002452    0.000000
   -4    0    0    5    6    0.000000    0.000000
   -4    0    0    6    6   -0.001280    0.000000
   -4    0    0    7    6    0.000655    0.000000
   -4    0    0    8    6   -0.000342    0.000000
   -4    0    0    9    6    0.001048   -0.000000
   -4    0    0   10    6    0.001269    0.000000
   -4    0    0   11    6   -0.000405   -0.000000
   -4    0    0    1    7    0.000000    0.000000
   -4    0    0    2    7   -0.001317   -0.000000
   -4    0    0    3    7    0.000000    0.000000
   -4    0    0    4    7   -0.000000    0.000000
   -4    0    0    5    7   -0.000491    0.000000
   -4    0    0    6    7   -0.000655   -0.000000
   -4    0    0    7    7    0.004072   -0.000000
   -4    0    0    8    7   -0.000328   -0.000000
   -4    0    0    9    7    0.001269   -0.000000
   -4    0    0   10    7    0.000848    0.000000
   -4    0    0   11    7    0.000182    0.000000
   -4    0    0    1    8    0.001256   -0.000000
   -4    0    0    2    8    0.000000    0.000000
   -4    0    0    3    8   -0.000344    0.000000
   -4    0    0    4    8   -0.001605   -0.000000
   -4    0    0    5    8    0.000000    0.000000
   -4    0    0    6    8   -0.000342   -0.000000
   -4    0    0    7    8    0.000328   -0.000000
   -4    0    0    8    8   -0.000384   -0.000000
   -4    0    0    9    8    0.000405   -0.000000
   -4    0    0   10    8   -0.000182    0.000000
   -4    0    0   11    8    0.000033   -0.000000
   -4    0    0    1    9   -0.001041    0.000000
   -4    0    0    2    9    0.000000    0.000000
   -4    0    0    3    9    0.000592   -0.000000
   -4    0    0    4    9    0.002452    0.000000
   -4    0    0    5    9   -0.000000    0.000000
   -4    0    0    6    9    0.001048    0.000000
   -4    0    0    7    9   -0.001269    0.000000
   -4    0    0    8    9    0.000405   -0.000000
   -4    0    0    9    9   -0.001280   -0.000000
   -4    0    0   10    9   -0.000655   -0.000000
   -4    0    0   11    9    0.000342    0.000000
   -4    0    0    1   10    0.000000   -0.000000
   -4    0    0    2   10    0.001317    0.000000
   -4    0    0    3   10   -0.000000    0.000000
   -4    0    0    4   10   -0.000000   -0.000000
   -4    0    0    5   10   -0.000491   -0.000000
   -4    0    0    6   10   -0.001269   -0.000000
   -4    0    0    7   10    0.000848   -0.000000
   -4    0    0    8   10    0.000182   -0.000000
   -4    0    0    9   10    0.000655   -0.000000
   -4    0    0   10   10    0.004072    0.000000
   -4    0    0   11   10   -0.000328   -0.000000
   -4    0    0    1   11    0.001256    0.000000
   -4    0    0    2   11   -0.000000    0.000000
   -4    0    0    3   11    0.000344    0.000000
   -4    0    0    4   11   -0.001605    0.000000
   -4    0    0    5   11    0.000000   -0.000000
   -4    0    0    6   11   -0.000405   -0.000000
   -4    0    0    7   11   -0.000182   -0.000000
   -4    0    0    8   11    0.000033    0.000000
   -4    0    0    9   11    0.000342    0.000000
   -4    0    0   10   11    0.000328    0.000000
   -4    0    0   11   11   -0.000384   -0.000000
   -4    1    0    1    1   -0.000050   -0.000000
   -4    1    0    2    1   -0.000000   -0.000000
   -4    1    0    3    1    0.000000   -0.000000
   -4    1    0    4    1    0.000594    0.000000
   -4    1    0    5    1    0.000000    0.000000
   -4    1    0    6    1    0.000864   -0.000000
   -4    1    0    7    1   -0.001836    0.000000
   -4    1    0    8    1    0.000646   -0.000000
   -4    1    0    9    1   -0.000864    0.000000
   -4    1    0   10    1   -0.001836   -0.000000
   -4    1    0   11    1    0.000646    0.000000
   -4    1    0    1    2    0.000000    0.000000
   -4    1    0    2    2   -0.000771    0.000000
   -4    1    0    3    2   -0.000000   -0.000000
   -4    1    0    4    2   -0.000000    0.000000
   -4    1    0    5    2   -0.000000    0.000000
   -4    1    0    6    2    0.000487    0.000000
   -4    1    0    7    2    0.000560   -0.000000
   -4    1    0    8    2   -0.000436    0.000000
   -4    1    0    9    2    0.000487   -0.000000
   -4    1    0   10    2   -0.000560   -0.000000
   -4    1    0   11    2    0.000436   -0.000000
   -4    1    0    1    3    0.000000    0.000000
   -4    1    0    2    3   -0.000000    0.000000
   -4    1    0    3    3    0.000606   -0.000000
   -4    1    0    4    3    0.000000   -0.000000
   -4    1    0    5    3    0.000000   -0.000000
   -4    1    0    6    3   -0.000396    0.000000
   -4    1    0    7    3   -0.000607    0.000000
   -4    1    0    8    3    0.000024    0.000000
   -4    1    0    9    3   -0.000396   -0.000000
   -4    1    0   10    3    0.000607   -0.000000
   -4    1    0   11    3   -0.000024    0.000000
   -4    1    0    1    4    0.001275   -0.000000
   -4    1    0    2    4   -0.000000   -0.000000
   -4    1    0    3    4    0.000000   -0.000000
   -4    1    0    4    4   -0.002384   -0.000000
   -4    1    0    5    4   -0.000000   -0.000000
   -4    1    0    6    4   -0.001072    0.000000
   -4    1    0    7    4    0.001705    0.000000
   -4    1    0    8    4   -0.000167    0.000000
   -4    1    0    9    4    0.001072    0.000000
   -4    1    0   10    4    0.001705   -0.000000
   -4    1    0   11    4   -0.000167   -0.000000
   -4    1    0    1    5    0.000000   -0.000000
   -4    1    0    2    5    0.000000   -0.000000
   -4    1    0    3    5   -0.000000    0.000000
   -4    1    0    4    5    0.000000    0.000000
   -4    1    0    5    5    0.001602   -0.000000
   -4    1    0    6    5   -0.001173    0.000000
   -4    1    0    7    5    0.000588   -0.000000
   -4    1    0    8    5   -0.000059    0.000000
   -4    1    0    9    5    0.001173    0.000000
   -4    1    0   10    5    0.000588    0.000000
   -4    1    0   11    5   -0.000059    0.000000
   -4    1    0    1    6   -0.000270   -0.000000
   -4    1    0    2    6    0.000221    0.000000
   -4    1    0    3    6   -0.000226   -0.000000
   -4    1    0    4    6   -0.000049    0.000000
   -4    1    0    5    6   -0.000285    0.000000
   -4    1    0    6    6    0.000371   -0.000000
   -4    1    0    7    6    0.000000   -0.000000
   -4    1    0    8    6    0.000069   -0.000000
   -4    1    0    9    6   -0.000359    0.000000
   -4    1    0   10    6   -0.000000    0.000000
   -4    1    0   11    6    0.000146    0.000000
   -4    1    0    1    7    0.000668    0.000000
   -4    1    0    2    7    0.001097    0.000000
   -4    1    0    3    7   -0.000329   -0.000000
   -4    1    0    4    7    0.000631   -0.000000
   -4    1    0    5    7   -0.001068    0.000000
   -4    1    0    6    7    0.000000   -0.000000
   -4    1    0    7    7    0.000036    0.000000
   -4    1    0    8    7    0.000000   -0.000000
   -4    1    0    9    7    0.000000    0.000000
   -4    1    0   10    7    0.000942   -0.000000
   -4    1    0   11    7    0.000000   -0.000000
   -4    1    0    1    8    0.000347    0.000000
   -4    1    0    2    8   -0.000641   -0.000000
   -4    1    0    3    8    0.000625    0.000000
   -4    1    0    4    8    0.000038   -0.000000
   -4    1    0    5    8   -0.000732    0.000000
   -4    1    0    6    8    0.000141    0.000000
   -4    1    0    7    8    0.000000    0.000000
   -4    1    0    8    8    0.000481    0.000000
   -4    1    0    9    8   -0.000744   -0.000000
   -4    1    0   10    8    0.000000    0.000000
   -4    1    0   11    8   -0.000470    0.000000
   -4    1    0    1    9    0.000270   -0.000000
   -4    1    0    2    9    0.000221   -0.000000
   -4    1    0    3    9   -0.000226    0.000000
   -4    1    0    4    9    0.000049    0.000000
   -4    1    0    5    9    0.000285    0.000000
   -4    1    0    6    9   -0.000360   -0.000000
   -4    1    0    7    9    0.000000   -0.000000
   -4    1    0    8    9   -0.000146   -0.000000
   -4    1    0    9    9    0.000371    0.000000
   -4    1    0   10    9   -0.000000    0.000000
   -4    1    0   11    9   -0.000069    0.000000
   -4    1    0    1   10    0.000668    0.000000
   -4    1    0    2   10   -0.001097    0.000000
   -4    1    0    3   10    0.000329    0.000000
   -4    1    0    4   10    0.000631    0.000000
   -4    1    0    5   10   -0.001068   -0.000000
   -4    1    0    6   10   -0.000000   -0.000000
   -4    1    0    7   10    0.000942    0.000000
   -4    1    0    8   10    0.000000   -0.000000
   -4    1    0    9   10   -0.000000   -0.000000
   -4    1    0   10   10    0.000036   -0.000000
   -4    1    0   11   10    0.000000    0.000000
   -4    1    0    1   11    0.000347   -0.000000
   -4    1    0    2   11    0.000641    0.000000
   -4    1    0    3   11   -0.000625    0.000000
   -4    1    0    4   11    0.000038    0.000000
   -4    1    0    5   11   -0.000732    0.000000
   -4    1    0    6   11    0.000744   -0.000000
   -4    1    0    7   11    0.000000   -0.000000
   -4    1    0    8   11   -0.000470   -0.000000
   -4    1    0    9   11   -0.000141   -0.000000
   -4    1    0   10   11    0.000000   -0.000000
   -4    1    0   11   11    0.000481   -0.000000
   -3   -5    0    1    1   -0.000917    0.000000
   -3   -5    0    2    1   -0.000000    0.000000
   -3   -5    0    3    1    0.000000    0.000000
   -3   -5    0    4    1   -0.002227   -0.000000
   -3   -5    0    5    1   -0.001452    0.000000
   -3   -5    0    6    1    0.002008   -0.000000
   -3   -5    0    7    1    0.000000   -0.000000
   -3   -5    0    8    1   -0.000576   -0.000000
   -3   -5    0    9    1   -0.002008   -0.000000
   -3   -5    0   10    1    0.000000    0.000000
   -3   -5    0   11    1   -0.000576    0.000000
   -3   -5    0    1    2   -0.000000    0.000000
   -3   -5    0    2    2    0.000185   -0.000000
   -3   -5    0    3    2    0.000214    0.000000
   -3   -5    0    4    2   -0.000000   -0.000000
   -3   -5    0    5    2    0.000000   -0.000000
   -3   -5    0    6    2    0.000000   -0.000000
   -3   -5    0    7    2   -0.000177    0.000000
   -3   -5    0    8    2    0.000000   -0.000000
   -3   -5    0    9    2    0.000000    0.000000
   -3   -5    0   10    2    0.000177   -0.000000
   -3   -5    0   11    2   -0.000000   -0.000000
   -3   -5    0    1    3   -0.000000   -0.000000
   -3   -5    0    2    3    0.001350    0.000000
   -3   -5    0    3    3   -0.000345    0.000000
   -3   -5    0    4    3   -0.000000   -0.000000
   -3   -5    0    5    3   -0.000000   -0.000000
   -3   -5    0    6    3   -0.000083    0.000000
   -3   -5    0    7    3   -0.000000   -0.000000
   -3   -5    0    8    3   -0.001748   -0.000000
   -3   -5    0    9    3   -0.000083   -0.000000
   -3   -5    0   10    3    0.000000    0.000000
   -3   -5    0   11    3    0.001748    0.000000
   -3   -5    0    1    4   -0.000318    0.000000
   -3   -5    0    2    4   -0.000000   -0.000000
   -3   -5    0    3    4    0.000000   -0.000000
   -3   -5    0    4    4   -0.001499   -0.000000
   -3   -5    0    5    4   -0.000523   -0.000000
   -3   -5    0    6    4    0.001919    0.000000
   -3   -5    0    7    4    0.000000    0.000000
   -3   -5    0    8    4   -0.001295   -0.000000
   -3   -5    0    9    4   -0.001919    0.000000
   -3   -5    0   10    4   -0.000000   -0.000000
   -3   -5    0   11    4   -0.001295    0.000000
   -3   -5    0    1    5   -0.000459    0.000000
   -3   -5    0    2    5   -0.000000   -0.000000
   -3   -5    0    3    5   -0.000000    0.000000
   -3   -5    0    4    5    0.001854   -0.000000
   -3   -5    0    5    5    0.000525    0.000000
   -3   -5    0    6    5   -0.000000    0.000000
   -3   -5    0    7    5    0.000229    0.000000
   -3   -5    0    8    5   -0.000000    0.000000
   -3   -5    0    9    5    0.000000    0.000000
   -3   -5    0   10    5    0.000229   -0.000000
   -3   -5    0   11    5   -0.000000   -0.000000
   -3   -5    0    1    6    0.000858   -0.000000
   -3   -5    0    2    6    0.000104    0.000000
   -3   -5    0    3    6   -0.000067    0.000000
   -3   -5    0    4    6    0.000047    0.000000
   -3   -5    0    5    6   -0.000094    0.000000
   -3   -5    0    6    6   -0.000835   -0.000000
   -3   -5    0    7    6   -0.000301   -0.000000
   -3   -5    0    8    6    0.000262    0.000000
   -3   -5    0    9    6    0.000663    0.000000
   -3   -5    0   10    6    0.000158    0.000000
   -3   -5    0   11    6    0.000388   -0.000000
   -3   -5    0    1    7   -0.000473    0.000000
   -3   -5    0    2    7   -0.000842    0.000000
   -3   -5    0    3    7   -0.000226    0.000000
   -3   -5    0    4    7    0.000785    0.000000
   -3   -5    0    5    7    0.000982   -0.000000
   -3   -5    0    6    7   -0.000536   -0.000000
   -3   -5    0    7    7    0.000302   -0.000000
   -3   -5    0    8    7    0.000392   -0.000000
   -3   -5    0    9    7    0.000835   -0.000000
   -3   -5    0   10    7   -0.000474    0.000000
   -3   -5    0   11    7   -0.000861    0.000000
   -3   -5    0    1    8    0.000259    0.000000
   -3   -5    0    2    8   -0.000228    0.000000
   -3   -5    0    3    8   -0.001191   -0.000000
   -3   -5    0    4    8    0.001845   -0.000000
   -3   -5    0    5    8    0.000751    0.000000
   -3   -5    0    6    8   -0.001351    0.000000
   -3   -5    0    7    8    0.000270   -0.000000
   -3   -5    0    8    8    0.000898    0.000000
   -3   -5    0    9    8    0.001535   -0.000000
   -3   -5    0   10    8   -0.000463   -0.000000
   -3   -5    0   11    8    0.000496    0.000000
   -3   -5    0    1    9   -0.000858   -0.000000
   -3   -5    0    2    9    0.000104   -0.000000
   -3   -5    0    3    9   -0.000067   -0.000000
   -3   -5    0    4    9   -0.000047    0.000000
   -3   -5    0    5    9    0.000094    0.000000
   -3   -5    0    6    9    0.000663   -0.000000
   -3   -5    0    7    9   -0.000158   -0.000000
   -3   -5    0    8    9   -0.000388    0.000000
   -3   -5    0    9    9   -0.000835    0.000000
   -3   -5    0   10    9    0.000301   -0.000000
   -3   -5    0   11    9   -0.000262   -0.000000
   -3   -5    0    1   10   -0.000473   -0.000000
   -3   -5    0    2   10    0.000842   -0.000000
   -3   -5    0    3   10    0.000226    0.000000
   -3   -5    0    4   10    0.000785   -0.000000
   -3   -5    0    5   10    0.000982    0.000000
   -3   -5    0    6   10   -0.000835    0.000000
   -3   -5    0    7   10   -0.000474   -0.000000
   -3   -5    0    8   10   -0.000861   -0.000000
   -3   -5    0    9   10    0.000536    0.000000
   -3   -5    0   10   10    0.000302    0.000000
   -3   -5    0   11   10    0.000392    0.000000
   -3   -5    0    1   11    0.000259   -0.000000
   -3   -5    0    2   11    0.000228    0.000000
   -3   -5    0    3   11    0.001191    0.000000
   -3   -5    0    4   11    0.001845    0.000000
   -3   -5    0    5   11    0.000751   -0.000000
   -3   -5    0    6   11   -0.001535   -0.000000
   -3   -5    0    7   11   -0.000463    0.000000
   -3   -5    0    8   11    0.000496   -0.000000
   -3   -5    0    9   11    0.001351   -0.000000
   -3   -5    0   10   11    0.000270    0.000000
   -3   -5    0   11   11    0.000898   -0.000000
   -3   -4    0    1    1    0.002545   -0.000000
   -3   -4    0    2    1    0.000000   -0.000000
   -3   -4    0    3    1    0.000000   -0.000000
   -3   -4    0    4    1    0.002506   -0.000000
   -3   -4    0    5    1    0.000892    0.000000
   -3   -4    0    6    1   -0.003467    0.000000
   -3   -4    0    7    1    0.000260    0.000000
   -3   -4    0    8    1    0.001880   -0.000000
   -3   -4    0    9    1    0.003467    0.000000
   -3   -4    0   10    1    0.000260   -0.000000
   -3   -4    0   11    1    0.001880    0.000000
   -3   -4    0    1    2    0.000000    0.000000
   -3   -4    0    2    2    0.001996    0.000000
   -3   -4    0    3    2    0.000134   -0.000000
   -3   -4    0    4    2    0.000000   -0.000000
   -3   -4    0    5    2   -0.000000   -0.000000
   -3   -4    0    6    2   -0.000534   -0.000000
   -3   -4    0    7    2    0.000025   -0.000000
   -3   -4    0    8    2   -0.000485    0.000000
   -3   -4    0    9    2   -0.000534    0.000000
   -3   -4    0   10    2   -0.000025   -0.000000
   -3   -4    0   11    2    0.000485    0.000000
   -3   -4    0    1    3    0.000000    0.000000
   -3   -4    0    2    3   -0.002082    0.000000
   -3   -4    0    3    3   -0.001377   -0.000000
   -3   -4    0    4    3    0.000000   -0.000000
   -3   -4    0    5    3    0.000000   -0.000000
   -3   -4    0    6    3    0.000420   -0.000000
   -3   -4    0    7    3    0.001754    0.000000
   -3   -4    0    8    3   -0.000242    0.000000
   -3   -4    0    9    3    0.000420    0.000000
   -3   -4    0   10    3   -0.001754    0.000000
   -3   -4    0   11    3    0.000242    0.000000
   -3   -4    0    1    4   -0.000255    0.000000
   -3   -4    0    2    4    0.000000   -0.000000
   -3   -4    0    3    4   -0.000000    0.000000
   -3   -4    0    4    4    0.001137    0.000000
   -3   -4    0    5    4   -0.000983   -0.000000
   -3   -4    0    6    4   -0.001867    0.000000
   -3   -4    0    7    4    0.000297   -0.000000
   -3   -4    0    8    4    0.002857    0.000000
   -3   -4    0    9    4    0.001867    0.000000
   -3   -4    0   10    4    0.000297   -0.000000
   -3   -4    0   11    4    0.002857   -0.000000
   -3   -4    0    1    5   -0.000944   -0.000000
   -3   -4    0    2    5   -0.000000   -0.000000
   -3   -4    0    3    5    0.000000   -0.000000
   -3   -4    0    4    5   -0.004795    0.000000
   -3   -4    0    5    5    0.001040    0.000000
   -3   -4    0    6    5    0.001618    0.000000
   -3   -4    0    7    5   -0.000731    0.000000
   -3   -4    0    8    5   -0.001787    0.000000
   -3   -4    0    9    5   -0.001618    0.000000
   -3   -4    0   10    5   -0.000731   -0.000000
   -3   -4    0   11    5   -0.001787   -0.000000
   -3   -4    0    1    6   -0.000273   -0.000000
   -3   -4    0    2    6   -0.000265   -0.000000
   -3   -4    0    3    6   -0.000072    0.000000
   -3   -4    0    4    6    0.000237    0.000000
   -3   -4    0    5    6    0.000116    0.000000
   -3   -4    0    6    6    0.000724    0.000000
   -3   -4    0    7    6    0.000113    0.000000
   -3   -4    0    8    6    0.001088   -0.000000
   -3   -4    0    9    6   -0.000527   -0.000000
   -3   -4    0   10    6    0.000234   -0.000000
   -3   -4    0   11    6   -0.000660   -0.000000
   -3   -4    0    1    7   -0.000017   -0.000000
   -3   -4    0    2    7    0.001175    0.000000
   -3   -4    0    3    7    0.000550   -0.000000
   -3   -4    0    4    7    0.000227    0.000000
   -3   -4    0    5    7   -0.000212    0.000000
   -3   -4    0    6    7    0.000557   -0.000000
   -3   -4    0    7    7   -0.001610    0.000000
   -3   -4    0    8    7   -0.000195   -0.000000
   -3   -4    0    9    7   -0.001158   -0.000000
   -3   -4    0   10    7    0.000561   -0.000000
   -3   -4    0   11    7    0.001065    0.000000
   -3   -4    0    1    8   -0.000745    0.000000
   -3   -4    0    2    8    0.000242    0.000000
   -3   -4    0    3    8    0.000612   -0.000000
   -3   -4    0    4    8   -0.000826   -0.000000
   -3   -4    0    5    8   -0.001074    0.000000
   -3   -4    0    6    8    0.001763   -0.000000
   -3   -4    0    7    8    0.000258    0.000000
   -3   -4    0    8    8   -0.000903   -0.000000
   -3   -4    0    9    8   -0.002156    0.000000
   -3   -4    0   10    8    0.000098    0.000000
   -3   -4    0   11    8    0.000274    0.000000
   -3   -4    0    1    9    0.000272   -0.000000
   -3   -4    0    2    9   -0.000265    0.000000
   -3   -4    0    3    9   -0.000072   -0.000000
   -3   -4    0    4    9   -0.000237    0.000000
   -3   -4    0    5    9   -0.000116    0.000000
   -3   -4    0    6    9   -0.000527    0.000000
   -3   -4    0    7    9   -0.000234    0.000000
   -3   -4    0    8    9    0.000660   -0.000000
   -3   -4    0    9    9    0.000724   -0.000000
   -3   -4    0   10    9   -0.000113   -0.000000
   -3   -4    0   11    9   -0.001088   -0.000000
   -3   -4    0    1   10   -0.000017    0.000000
   -3   -4    0    2   10   -0.001175    0.000000
   -3   -4    0    3   10   -0.000550   -0.000000
   -3   -4    0    4   10    0.000227   -0.000000
   -3   -4    0    5   10   -0.000212   -0.000000
   -3   -4    0    6   10    0.001158   -0.000000
   -3   -4    0    7   10    0.000561    0.000000
   -3   -4    0    8   10    0.001065    0.000000
   -3   -4    0    9   10   -0.000557   -0.000000
   -3   -4    0   10   10   -0.001610   -0.000000
   -3   -4    0   11   10   -0.000195    0.000000
   -3   -4    0    1   11   -0.000745   -0.000000
   -3   -4    0    2   11   -0.000242   -0.000000
   -3   -4    0    3   11   -0.000612   -0.000000
   -3   -4    0    4   11   -0.000826    0.000000
   -3   -4    0    5   11   -0.001074   -0.000000
   -3   -4    0    6   11    0.002156    0.000000
   -3   -4    0    7   11    0.000098   -0.000000
   -3   -4    0    8   11    0.000274   -0.000000
   -3   -4    0    9   11   -0.001763    0.000000
   -3   -4    0   10   11    0.000258   -0.000000
   -3   -4    0   11   11   -0.000903    0.000000
   -3   -3    0    1    1   -0.010182    0.000000
   -3   -3    0    2    1    0.000000   -0.000000
   -3   -3    0    3    1    0.000000   -0.000000
   -3   -3    0    4    1   -0.008645   -0.000000
   -3   -3    0    5    1    0.006342    0.000000
   -3   -3    0    6    1    0.007115    0.000000
   -3   -3    0    7    1    0.009808    0.000000
   -3   -3    0    8    1    0.003835    0.000000
   -3   -3    0    9    1   -0.007115    0.000000
   -3   -3    0   10    1    0.009808   -0.000000
   -3   -3    0   11    1    0.003835   -0.000000
   -3   -3    0    1    2   -0.000000   -0.000000
   -3   -3    0    2    2   -0.001147   -0.000000
   -3   -3    0    3    2   -0.001370    0.000000
   -3   -3    0    4    2   -0.000000    0.000000
   -3   -3    0    5    2    0.000000    0.000000
   -3   -3    0    6    2    0.000101   -0.000000
[...]
    5    2    0    9    8   -0.000065    0.000000
    5    2    0   10    8    0.000939   -0.000000
    5    2    0   11    8    0.000352    0.000000
    5    2    0    1    9    0.000853   -0.000000
    5    2    0    2    9   -0.000343   -0.000000
    5    2    0    3    9    0.000880   -0.000000
    5    2    0    4    9   -0.001391   -0.000000
    5    2    0    5    9   -0.001850   -0.000000
    5    2    0    6    9    0.000666    0.000000
    5    2    0    7    9    0.000441   -0.000000
    5    2    0    8    9    0.000058    0.000000
    5    2    0    9    9   -0.000852   -0.000000
    5    2    0   10    9    0.000064   -0.000000
    5    2    0   11    9    0.000417   -0.000000
    5    2    0    1   10    0.001615    0.000000
    5    2    0    2   10    0.000717   -0.000000
    5    2    0    3   10   -0.000589   -0.000000
    5    2    0    4   10   -0.001620   -0.000000
    5    2    0    5   10   -0.003773    0.000000
    5    2    0    6   10    0.001735    0.000000
    5    2    0    7   10   -0.000324    0.000000
    5    2    0    8   10    0.000553   -0.000000
    5    2    0    9   10   -0.001427    0.000000
    5    2    0   10   10    0.001046   -0.000000
    5    2    0   11   10    0.000170    0.000000
    5    2    0    1   11    0.000990   -0.000000
    5    2    0    2   11   -0.000469   -0.000000
    5    2    0    3   11   -0.000638   -0.000000
    5    2    0    4   11   -0.000162   -0.000000
    5    2    0    5   11   -0.001577    0.000000
    5    2    0    6   11    0.000065    0.000000
    5    2    0    7   11    0.000939    0.000000
    5    2    0    8   11    0.000352   -0.000000
    5    2    0    9   11   -0.000250    0.000000
    5    2    0   10   11    0.000022   -0.000000
    5    2    0   11   11    0.000155   -0.000000
    5    3    0    1    1   -0.000870   -0.000000
    5    3    0    2    1   -0.000000    0.000000
    5    3    0    3    1    0.000000    0.000000
    5    3    0    4    1    0.002354    0.000000
    5    3    0    5    1    0.001271   -0.000000
    5    3    0    6    1   -0.001105    0.000000
    5    3    0    7    1   -0.000714   -0.000000
    5    3    0    8    1    0.000396   -0.000000
    5    3    0    9    1    0.001105    0.000000
    5    3    0   10    1   -0.000714   -0.000000
    5    3    0   11    1    0.000396    0.000000
    5    3    0    1    2   -0.000000   -0.000000
    5    3    0    2    2   -0.000900    0.000000
    5    3    0    3    2    0.000726    0.000000
    5    3    0    4    2   -0.000000    0.000000
    5    3    0    5    2   -0.000000    0.000000
    5    3    0    6    2    0.000101   -0.000000
    5    3    0    7    2    0.000129   -0.000000
    5    3    0    8    2   -0.000164   -0.000000
    5    3    0    9    2    0.000101    0.000000
    5    3    0   10    2   -0.000129    0.000000
    5    3    0   11    2    0.000164   -0.000000
    5    3    0    1    3    0.000000   -0.000000
    5    3    0    2    3   -0.000379   -0.000000
    5    3    0    3    3    0.000720   -0.000000
    5    3    0    4    3   -0.000000    0.000000
    5    3    0    5    3   -0.000000    0.000000
    5    3    0    6    3   -0.000078   -0.000000
    5    3    0    7    3   -0.000150   -0.000000
    5    3    0    8    3   -0.000132    0.000000
    5    3    0    9    3   -0.000078    0.000000
    5    3    0   10    3    0.000150    0.000000
    5    3    0   11    3    0.000132   -0.000000
    5    3    0    1    4    0.000556    0.000000
    5    3    0    2    4   -0.000000    0.000000
    5    3    0    3    4   -0.000000    0.000000
    5    3    0    4    4    0.000562    0.000000
    5    3    0    5    4    0.000645   -0.000000
    5    3    0    6    4   -0.000676   -0.000000
    5    3    0    7    4    0.000077   -0.000000
    5    3    0    8    4    0.000296    0.000000
    5    3    0    9    4    0.000676   -0.000000
    5    3    0   10    4    0.000078    0.000000
    5    3    0   11    4    0.000296   -0.000000
    5    3    0    1    5    0.000038    0.000000
    5    3    0    2    5    0.000000    0.000000
    5    3    0    3    5    0.000000    0.000000
    5    3    0    4    5   -0.001754   -0.000000
    5    3    0    5    5   -0.001561   -0.000000
    5    3    0    6    5    0.001150   -0.000000
    5    3    0    7    5    0.000204   -0.000000
    5    3    0    8    5    0.000084   -0.000000
    5    3    0    9    5   -0.001150   -0.000000
    5    3    0   10    5    0.000204    0.000000
    5    3    0   11    5    0.000084    0.000000
    5    3    0    1    6   -0.000863    0.000000
    5    3    0    2    6    0.000557   -0.000000
    5    3    0    3    6   -0.000736   -0.000000
    5    3    0    4    6    0.000887   -0.000000
    5    3    0    5    6    0.002174   -0.000000
    5    3    0    6    6   -0.000829    0.000000
    5    3    0    7    6   -0.000423    0.000000
    5    3    0    8    6    0.000115    0.000000
    5    3    0    9    6    0.000697   -0.000000
    5    3    0   10    6   -0.000249   -0.000000
    5    3    0   11    6   -0.000335    0.000000
    5    3    0    1    7    0.001641    0.000000
    5    3    0    2    7    0.000720    0.000000
    5    3    0    3    7   -0.000299    0.000000
    5    3    0    4    7   -0.002276   -0.000000
    5    3    0    5    7   -0.002470   -0.000000
    5    3    0    6    7    0.000936   -0.000000
    5    3    0    7    7    0.000438   -0.000000
    5    3    0    8    7    0.000366   -0.000000
    5    3    0    9    7   -0.000940   -0.000000
    5    3    0   10    7    0.000855    0.000000
    5    3    0   11    7    0.000301    0.000000
    5    3    0    1    8    0.000941    0.000000
    5    3    0    2    8   -0.000209    0.000000
    5    3    0    3    8   -0.000881    0.000000
    5    3    0    4    8   -0.001500    0.000000
    5    3    0    5    8   -0.002478   -0.000000
    5    3    0    6    8    0.001137   -0.000000
    5    3    0    7    8    0.000493    0.000000
    5    3    0    8    8    0.000755    0.000000
    5    3    0    9    8   -0.001511   -0.000000
    5    3    0   10    8   -0.000109    0.000000
    5    3    0   11    8   -0.000822   -0.000000
    5    3    0    1    9    0.000863    0.000000
    5    3    0    2    9    0.000557   -0.000000
    5    3    0    3    9   -0.000736    0.000000
    5    3    0    4    9   -0.000887   -0.000000
    5    3    0    5    9   -0.002174   -0.000000
    5    3    0    6    9    0.000697    0.000000
    5    3    0    7    9    0.000249    0.000000
    5    3    0    8    9    0.000335   -0.000000
    5    3    0    9    9   -0.000829   -0.000000
    5    3    0   10    9    0.000423   -0.000000
    5    3    0   11    9   -0.000115    0.000000
    5    3    0    1   10    0.001641   -0.000000
    5    3    0    2   10   -0.000720    0.000000
    5    3    0    3   10    0.000299    0.000000
    5    3    0    4   10   -0.002276    0.000000
    5    3    0    5   10   -0.002470    0.000000
    5    3    0    6   10    0.000940   -0.000000
    5    3    0    7   10    0.000855   -0.000000
    5    3    0    8   10    0.000301   -0.000000
    5    3    0    9   10   -0.000936   -0.000000
    5    3    0   10   10    0.000438    0.000000
    5    3    0   11   10    0.000366    0.000000
    5    3    0    1   11    0.000941   -0.000000
    5    3    0    2   11    0.000209   -0.000000
    5    3    0    3   11    0.000881   -0.000000
    5    3    0    4   11   -0.001500   -0.000000
    5    3    0    5   11   -0.002478    0.000000
    5    3    0    6   11    0.001511    0.000000
    5    3    0    7   11   -0.000109    0.000000
    5    3    0    8   11   -0.000822   -0.000000
    5    3    0    9   11   -0.001137    0.000000
    5    3    0   10   11    0.000493   -0.000000
    5    3    0   11   11    0.000755   -0.000000
    5    4    0    1    1   -0.000063   -0.000000
    5    4    0    2    1    0.000000    0.000000
    5    4    0    3    1   -0.000000    0.000000
    5    4    0    4    1   -0.000298    0.000000
    5    4    0    5    1    0.000563    0.000000
    5    4    0    6    1    0.000882   -0.000000
    5    4    0    7    1   -0.000347   -0.000000
    5    4    0    8    1   -0.001900    0.000000
    5    4    0    9    1   -0.000882   -0.000000
    5    4    0   10    1   -0.000347    0.000000
    5    4    0   11    1   -0.001900   -0.000000
    5    4    0    1    2    0.000000   -0.000000
    5    4    0    2    2    0.000280    0.000000
    5    4    0    3    2   -0.000622    0.000000
    5    4    0    4    2   -0.000000    0.000000
    5    4    0    5    2   -0.000000    0.000000
    5    4    0    6    2   -0.000073    0.000000
    5    4    0    7    2   -0.000318   -0.000000
    5    4    0    8    2   -0.000150    0.000000
    5    4    0    9    2   -0.000073   -0.000000
    5    4    0   10    2    0.000318   -0.000000
    5    4    0   11    2    0.000150   -0.000000
    5    4    0    1    3   -0.000000   -0.000000
    5    4    0    2    3   -0.000656    0.000000
    5    4    0    3    3   -0.000421    0.000000
    5    4    0    4    3   -0.000000    0.000000
    5    4    0    5    3   -0.000000   -0.000000
    5    4    0    6    3    0.000635    0.000000
    5    4    0    7    3    0.000028   -0.000000
    5    4    0    8    3    0.000958   -0.000000
    5    4    0    9    3    0.000635   -0.000000
    5    4    0   10    3   -0.000028   -0.000000
    5    4    0   11    3   -0.000958   -0.000000
    5    4    0    1    4   -0.000666    0.000000
    5    4    0    2    4    0.000000    0.000000
    5    4    0    3    4    0.000000   -0.000000
    5    4    0    4    4    0.000631    0.000000
    5    4    0    5    4    0.001717    0.000000
    5    4    0    6    4   -0.000506    0.000000
    5    4    0    7    4   -0.000167   -0.000000
    5    4    0    8    4   -0.000312   -0.000000
    5    4    0    9    4    0.000506    0.000000
    5    4    0   10    4   -0.000167    0.000000
    5    4    0   11    4   -0.000312    0.000000
    5    4    0    1    5    0.001099    0.000000
    5    4    0    2    5    0.000000    0.000000
    5    4    0    3    5    0.000000   -0.000000
    5    4    0    4    5    0.001647   -0.000000
    5    4    0    5    5   -0.001359    0.000000
    5    4    0    6    5   -0.001508   -0.000000
    5    4    0    7    5    0.000736    0.000000
    5    4    0    8    5    0.001614   -0.000000
    5    4    0    9    5    0.001508   -0.000000
    5    4    0   10    5    0.000736   -0.000000
    5    4    0   11    5    0.001614    0.000000
    5    4    0    1    6   -0.000259    0.000000
    5    4    0    2    6   -0.000068    0.000000
    5    4    0    3    6    0.000310   -0.000000
    5    4    0    4    6   -0.000198    0.000000
    5    4    0    5    6   -0.000180   -0.000000
    5    4    0    6    6    0.000331   -0.000000
    5    4    0    7    6    0.000044    0.000000
    5    4    0    8    6   -0.000013    0.000000
    5    4    0    9    6   -0.000365    0.000000
    5    4    0   10    6    0.000115    0.000000
    5    4    0   11    6   -0.000090    0.000000
    5    4    0    1    7    0.000625    0.000000
    5    4    0    2    7    0.000312    0.000000
    5    4    0    3    7   -0.000255    0.000000
    5    4    0    4    7   -0.001159   -0.000000
    5    4    0    5    7   -0.000288    0.000000
    5    4    0    6    7    0.000137   -0.000000
    5    4    0    7    7    0.000388    0.000000
    5    4    0    8    7   -0.000174    0.000000
    5    4    0    9    7   -0.000653   -0.000000
    5    4    0   10    7   -0.000137    0.000000
    5    4    0   11    7    0.000609    0.000000
    5    4    0    1    8    0.000377   -0.000000
    5    4    0    2    8    0.000078    0.000000
    5    4    0    3    8    0.001483    0.000000
    5    4    0    4    8   -0.000763   -0.000000
    5    4    0    5    8    0.000189    0.000000
    5    4    0    6    8   -0.000061   -0.000000
    5    4    0    7    8   -0.000188    0.000000
    5    4    0    8    8    0.000136   -0.000000
    5    4    0    9    8    0.000382    0.000000
    5    4    0   10    8    0.000614    0.000000
    5    4    0   11    8    0.000595   -0.000000
    5    4    0    1    9    0.000259    0.000000
    5    4    0    2    9   -0.000068   -0.000000
    5    4    0    3    9    0.000310    0.000000
    5    4    0    4    9    0.000198    0.000000
    5    4    0    5    9    0.000180   -0.000000
    5    4    0    6    9   -0.000365   -0.000000
    5    4    0    7    9   -0.000115    0.000000
    5    4    0    8    9    0.000090    0.000000
    5    4    0    9    9    0.000331   -0.000000
    5    4    0   10    9   -0.000044    0.000000
    5    4    0   11    9    0.000013    0.000000
    5    4    0    1   10    0.000625   -0.000000
    5    4    0    2   10   -0.000312    0.000000
    5    4    0    3   10    0.000255    0.000000
    5    4    0    4   10   -0.001159    0.000000
    5    4    0    5   10   -0.000288   -0.000000
    5    4    0    6   10    0.000653   -0.000000
    5    4    0    7   10   -0.000137   -0.000000
    5    4    0    8   10    0.000609    0.000000
    5    4    0    9   10   -0.000137   -0.000000
    5    4    0   10   10    0.000388   -0.000000
    5    4    0   11   10   -0.000174   -0.000000
    5    4    0    1   11    0.000377    0.000000
    5    4    0    2   11   -0.000078    0.000000
    5    4    0    3   11   -0.001483    0.000000
    5    4    0    4   11   -0.000763    0.000000
    5    4    0    5   11    0.000189    0.000000
    5    4    0    6   11   -0.000382   -0.000000
    5    4    0    7   11    0.000614   -0.000000
    5    4    0    8   11    0.000595    0.000000
    5    4    0    9   11    0.000061   -0.000000
    5    4    0   10   11   -0.000188    0.000000
    5    4    0   11   11    0.000136    0.000000
    6    3    0    1    1    0.001911   -0.000000
    6    3    0    2    1   -0.000000    0.000000
    6    3    0    3    1   -0.000000    0.000000
    6    3    0    4    1   -0.000034   -0.000000
    6    3    0    5    1   -0.000000   -0.000000
    6    3    0    6    1   -0.001105   -0.000000
    6    3    0    7    1    0.000714   -0.000000
    6    3    0    8    1    0.000396    0.000000
    6    3    0    9    1    0.001105   -0.000000
    6    3    0   10    1    0.000714    0.000000
    6    3    0   11    1    0.000396   -0.000000
    6    3    0    1    2   -0.000000    0.000000
    6    3    0    2    2    0.000366   -0.000000
    6    3    0    3    2   -0.000000   -0.000000
    6    3    0    4    2   -0.000000   -0.000000
    6    3    0    5    2    0.000000    0.000000
    6    3    0    6    2   -0.000101    0.000000
    6    3    0    7    2    0.000129    0.000000
    6    3    0    8    2    0.000164   -0.000000
    6    3    0    9    2   -0.000101    0.000000
    6    3    0   10    2   -0.000129    0.000000
    6    3    0   11    2   -0.000164   -0.000000
    6    3    0    1    3    0.000000   -0.000000
    6    3    0    2    3   -0.000000    0.000000
    6    3    0    3    3    0.000351   -0.000000
    6    3    0    4    3   -0.000000   -0.000000
    6    3    0    5    3   -0.000000    0.000000
    6    3    0    6    3   -0.000078    0.000000
    6    3    0    7    3    0.000150   -0.000000
    6    3    0    8    3   -0.000132   -0.000000
    6    3    0    9    3   -0.000078   -0.000000
    6    3    0   10    3   -0.000150   -0.000000
    6    3    0   11    3    0.000132   -0.000000
    6    3    0    1    4   -0.000002    0.000000
    6    3    0    2    4   -0.000000   -0.000000
    6    3    0    3    4   -0.000000    0.000000
    6    3    0    4    4    0.000790   -0.000000
    6    3    0    5    4    0.000000   -0.000000
    6    3    0    6    4   -0.000676   -0.000000
    6    3    0    7    4   -0.000078    0.000000
    6    3    0    8    4    0.000296    0.000000
    6    3    0    9    4    0.000676   -0.000000
    6    3    0   10    4   -0.000078    0.000000
    6    3    0   11    4    0.000296   -0.000000
    6    3    0    1    5    0.000000   -0.000000
    6    3    0    2    5   -0.000000   -0.000000
    6    3    0    3    5   -0.000000    0.000000
    6    3    0    4    5    0.000000    0.000000
    6    3    0    5    5    0.000776    0.000000
    6    3    0    6    5   -0.001150    0.000000
    6    3    0    7    5    0.000204   -0.000000
    6    3    0    8    5   -0.000084    0.000000
    6    3    0    9    5    0.001150    0.000000
    6    3    0   10    5    0.000204    0.000000
    6    3    0   11    5   -0.000084   -0.000000
    6    3    0    1    6   -0.000104    0.000000
    6    3    0    2    6    0.000043    0.000000
    6    3    0    3    6    0.000015    0.000000
    6    3    0    4    6   -0.000778    0.000000
    6    3    0    5    6   -0.001367    0.000000
    6    3    0    6    6    0.001015   -0.000000
    6    3    0    7    6    0.000000   -0.000000
    6    3    0    8    6    0.000013    0.000000
    6    3    0    9    6   -0.001130    0.000000
    6    3    0   10    6   -0.000000    0.000000
    6    3    0   11    6   -0.000009    0.000000
    6    3    0    1    7   -0.001122    0.000000
    6    3    0    2    7    0.000542   -0.000000
    6    3    0    3    7    0.000163    0.000000
    6    3    0    4    7    0.001232    0.000000
    6    3    0    5    7    0.000839   -0.000000
    6    3    0    6    7    0.000000    0.000000
    6    3    0    7    7   -0.000737   -0.000000
    6    3    0    8    7   -0.000000    0.000000
    6    3    0    9    7    0.000000    0.000000
    6    3    0   10    7    0.000328    0.000000
    6    3    0   11    7    0.000000    0.000000
    6    3    0    1    8   -0.000652   -0.000000
    6    3    0    2    8    0.000168   -0.000000
    6    3    0    3    8    0.000337    0.000000
    6    3    0    4    8   -0.000613    0.000000
    6    3    0    5    8    0.001316   -0.000000
    6    3    0    6    8   -0.000022   -0.000000
    6    3    0    7    8   -0.000000   -0.000000
    6    3    0    8    8   -0.000758    0.000000
    6    3    0    9    8    0.000028   -0.000000
    6    3    0   10    8    0.000000   -0.000000
    6    3    0   11    8    0.000351   -0.000000
    6    3    0    1    9    0.000104    0.000000
    6    3    0    2    9    0.000043   -0.000000
    6    3    0    3    9    0.000015    0.000000
    6    3    0    4    9    0.000778   -0.000000
    6    3    0    5    9    0.001367   -0.000000
    6    3    0    6    9   -0.001130   -0.000000
    6    3    0    7    9    0.000000    0.000000
    6    3    0    8    9    0.000009    0.000000
    6    3    0    9    9    0.001015    0.000000
    6    3    0   10    9   -0.000000    0.000000
    6    3    0   11    9   -0.000013    0.000000
    6    3    0    1   10   -0.001122   -0.000000
    6    3    0    2   10   -0.000542   -0.000000
    6    3    0    3   10   -0.000163    0.000000
    6    3    0    4   10    0.001232   -0.000000
    6    3    0    5   10    0.000839    0.000000
    6    3    0    6   10   -0.000000   -0.000000
    6    3    0    7   10    0.000328   -0.000000
    6    3    0    8   10    0.000000    0.000000
    6    3    0    9   10   -0.000000   -0.000000
    6    3    0   10   10   -0.000737    0.000000
    6    3    0   11   10   -0.000000   -0.000000
    6    3    0    1   11   -0.000652    0.000000
    6    3    0    2   11   -0.000168    0.000000
    6    3    0    3   11   -0.000337    0.000000
    6    3    0    4   11   -0.000613   -0.000000
    6    3    0    5   11    0.001316    0.000000
    6    3    0    6   11   -0.000028   -0.000000
    6    3    0    7   11    0.000000    0.000000
    6    3    0    8   11    0.000351    0.000000
    6    3    0    9   11    0.000022   -0.000000
    6    3    0   10   11   -0.000000    0.000000
    6    3    0   11   11   -0.000758    0.000000
