 vasp.6.3.0 20Jan22 (build Dec 11 2022 14:37:43) complex                        
  
 executed on             LinuxIFC date 2024.05.17  22:54:45
 running on   56 total cores
 distrk:  each k-point on   56 cores,    1 groups
 distr:  one band on NCORE=   1 cores,   56 groups


--------------------------------------------------------------------------------------------------------


 INCAR:
   SYSTEM = Bi2Se3
   EDIFF = 1E-8
   PREC = N
   LSORBIT = .TRUE.
   LORBIT = 11
   ISMEAR = 0
   SIGMA = 0.05
   GGA = PE
   ENCUT = 300.00 eV
   MAGMOM = 3600*0.0
   ISTART = 1
   ICHARG = 11
   NBANDS = 56

 POTCAR:    PAW_PBE Bi 08Apr2002                  
 POTCAR:    PAW_PBE Se 06Sep2000                  
 -----------------------------------------------------------------------------
|                                                                             |
|           W    W    AA    RRRRR   N    N  II  N    N   GGGG   !!!           |
|           W    W   A  A   R    R  NN   N  II  NN   N  G    G  !!!           |
|           W    W  A    A  R    R  N N  N  II  N N  N  G       !!!           |
|           W WW W  AAAAAA  RRRRR   N  N N  II  N  N N  G  GGG   !            |
|           WW  WW  A    A  R   R   N   NN  II  N   NN  G    G                |
|           W    W  A    A  R    R  N    N  II  N    N   GGGG   !!!           |
|                                                                             |
|     For optimal performance we recommend to set                             |
|       NCORE = 2 up to number-of-cores-per-socket                            |
|     NCORE specifies how many cores store one orbital (NPAR=cpu/NCORE).      |
|     This setting can greatly improve the performance of VASP for DFT.       |
|     The default, NCORE=1 might be grossly inefficient on modern             |
|     multi-core architectures or massively parallel machines. Do your        |
|     own testing! More info at https://www.vasp.at/wiki/index.php/NCORE      |
|     Unfortunately you need to use the default for GW and RPA                |
|     calculations (for HF NCORE is supported but not extensively tested      |
|     yet).                                                                   |
|                                                                             |
 -----------------------------------------------------------------------------

 POTCAR:    PAW_PBE Bi 08Apr2002                  
   SHA256 =  d6b6753ed5db3f0e277fb15e6dbb6699c4bc829850a481068e9e7236faeca489 Bi/POTCAR             
   COPYR  = (c) Copyright 08Apr2002 Georg Kresse                                                    
   COPYR  = This file is part of the software VASP. Any use, copying, and all other rights are regul
   COPYR  = If you do not have a valid VASP license, you may not use, copy or distribute this file. 
   VRHFIN =Bi:                                                                                      
   LEXCH  = PE                                                                                      
   EATOM  =   150.8133 eV,   11.0845 Ry                                                             
                                                                                                    
   TITEL  = PAW_PBE Bi 08Apr2002                                                                    
   LULTRA =        F    use ultrasoft PP ?                                                          
   IUNSCR =        1    unscreen: 0-lin 1-nonlin 2-no                                               
   RPACOR =    2.200    partial core radius                                                         
   POMASS =  208.980; ZVAL   =    5.000    mass and valenz                                          
   RCORE  =    3.000    outmost cutoff radius                                                       
   RWIGS  =    3.090; RWIGS  =    1.635    wigner-seitz radius (au A)                               
   ENMAX  =  105.037; ENMIN  =   78.777 eV                                                          
   ICORE  =        3    local potential                                                             
   LCOR   =        T    correct aug charges                                                         
   LPAW   =        T    paw PP                                                                      
   EAUG   =  265.427                                                                                
   DEXC   =    0.000                                                                                
   RMAX   =    3.067    core radius for proj-oper                                                   
   RAUG   =    1.300    factor for augmentation sphere                                              
   RDEP   =    3.012    radius for radial grids                                                     
   RDEPT  =    2.604    core radius for aug-charge                                                  
                                                                                                    
   Atomic configuration                                                                             
   17 entries                                                                                       
     n  l   j            E        occ.                                                              
     1  0  0.50    -90639.6582   2.0000                                                             
     2  0  0.50    -16282.4667   2.0000                                                             
     2  1  1.50    -13922.8287   6.0000                                                             
     3  0  0.50     -3930.4763   2.0000                                                             
     3  1  1.50     -3256.7013   6.0000                                                             
     3  2  2.50     -2581.6169  10.0000                                                             
     4  0  0.50      -902.2614   2.0000                                                             
     4  1  1.50      -681.5915   6.0000                                                             
     4  2  2.50      -429.8249  10.0000                                                             
     4  3  3.50      -152.6004  14.0000                                                             
     5  0  0.50      -157.7156   2.0000                                                             
     5  1  1.50       -95.8054   6.0000                                                             
     5  2  2.50       -27.0806  10.0000                                                             
     6  0  0.50       -14.4732   2.0000                                                             
     6  1  1.50        -4.5702   3.0000                                                             
     6  2  2.50        -2.7212   0.0000                                                             
     5  3  2.50        -2.7212   0.0000                                                             
   Description                                                                                      
     l       E           TYP  RCUT    TYP  RCUT                                                     
     0    -14.4732299     23  3.000                                                                 
     0    -12.2452434     23  3.000                                                                 
     1     -4.5701666     23  3.000                                                                 
     1    -13.6058260     23  3.000                                                                 
     2     -2.7211652     23  3.000                                                                 
     3     -1.3605826      7  3.000                                                                 
  local pseudopotential read in
  partial core-charges read in
  partial kinetic energy density read in
  kinetic energy density of atom read in
  atomic valenz-charges read in
  non local Contribution for L=           0  read in
    real space projection operators read in
  non local Contribution for L=           0  read in
    real space projection operators read in
  non local Contribution for L=           1  read in
    real space projection operators read in
  non local Contribution for L=           1  read in
    real space projection operators read in
  non local Contribution for L=           2  read in
    real space projection operators read in
    PAW grid and wavefunctions read in
 
   number of l-projection  operators is LMAX  =           5
   number of lm-projection operators is LMMAX =          13
 
 POTCAR:    PAW_PBE Se 06Sep2000                  
   SHA256 =  eabb916e6b4c819dc065ce039373bc328651da483898f08fb9e49c498452bf12 Se/POTCAR             
   COPYR  = (c) Copyright 06Sep2000 Georg Kresse                                                    
   COPYR  = This file is part of the software VASP. Any use, copying, and all other rights are regul
   COPYR  = If you do not have a valid VASP license, you may not use, copy or distribute this file. 
   VRHFIN =Se: s2p4                                                                                 
   LEXCH  = PE                                                                                      
   EATOM  =   257.1286 eV,   18.8984 Ry                                                             
                                                                                                    
   TITEL  = PAW_PBE Se 06Sep2000                                                                    
   LULTRA =        F    use ultrasoft PP ?                                                          
   IUNSCR =        1    unscreen: 0-lin 1-nonlin 2-no                                               
   RPACOR =    1.900    partial core radius                                                         
   POMASS =   78.960; ZVAL   =    6.000    mass and valenz                                          
   RCORE  =    2.100    outmost cutoff radius                                                       
   RWIGS  =    2.200; RWIGS  =    1.164    wigner-seitz radius (au A)                               
   ENMAX  =  211.555; ENMIN  =  158.666 eV                                                          
   ICORE  =        3    local potential                                                             
   LCOR   =        T    correct aug charges                                                         
   LPAW   =        T    paw PP                                                                      
   EAUG   =  446.842                                                                                
   DEXC   =    0.000                                                                                
   RMAX   =    2.147    core radius for proj-oper                                                   
   RAUG   =    1.300    factor for augmentation sphere                                              
   RDEP   =    2.177    radius for radial grids                                                     
   RDEPT  =    1.928    core radius for aug-charge                                                  
                                                                                                    
   Atomic configuration                                                                             
   10 entries                                                                                       
     n  l   j            E        occ.                                                              
     1  0  0.50    -12503.4787   2.0000                                                             
     2  0  0.50     -1606.9547   2.0000                                                             
     2  1  1.50     -1413.3140   6.0000                                                             
     3  0  0.50      -213.4885   2.0000                                                             
     3  1  1.50      -152.9538   6.0000                                                             
     3  2  2.50       -53.1221  10.0000                                                             
     4  0  0.50       -17.2865   2.0000                                                             
     4  1  0.50        -6.5110   4.0000                                                             
     4  2  2.50        -6.8029   0.0000                                                             
     4  3  2.50        -6.8029   0.0000                                                             
   Description                                                                                      
     l       E           TYP  RCUT    TYP  RCUT                                                     
     0    -17.2865377     23  2.100                                                                 
     0    -15.3094411     23  2.100                                                                 
     1     -6.5110275     23  2.100                                                                 
     1     -0.0695192     23  2.100                                                                 
     2     -6.8029130     23  2.100                                                                 
     3     -1.3605826      7  2.100                                                                 
  local pseudopotential read in
  partial core-charges read in
  partial kinetic energy density read in
  atomic valenz-charges read in
  non local Contribution for L=           0  read in
    real space projection operators read in
  non local Contribution for L=           0  read in
    real space projection operators read in
  non local Contribution for L=           1  read in
    real space projection operators read in
  non local Contribution for L=           1  read in
    real space projection operators read in
  non local Contribution for L=           2  read in
    real space projection operators read in
    PAW grid and wavefunctions read in
 
   number of l-projection  operators is LMAX  =           5
   number of lm-projection operators is LMMAX =          13
 
  PAW_PBE Bi 08Apr2002                  :
 energy of atom  1       EATOM= -150.8133
 kinetic energy error for atom=    0.0003 (will be added to EATOM!!)
  PAW_PBE Se 06Sep2000                  :
 energy of atom  2       EATOM= -257.1286
 kinetic energy error for atom=    0.0040 (will be added to EATOM!!)
 
 
 POSCAR: Bi2Se3
  positions in direct lattice
  velocities in cartesian coordinates
  No initial velocities read in
 exchange correlation table for  LEXCH =        8
   RHO(1)=    0.500       N(1)  =     2000
   RHO(2)=  100.500       N(2)  =     4000
 


--------------------------------------------------------------------------------------------------------


 ion  position               nearest neighbor table
   1  0.399  0.399  0.697-   5 2.97   5 2.97   5 2.97   3 3.04   3 3.04   3 3.04
   2  0.601  0.601  0.303-   4 2.97   4 2.97   4 2.97   3 3.04   3 3.04   3 3.04
   3  0.000  0.000  0.500-   2 3.04   2 3.04   1 3.04   1 3.04   1 3.04   2 3.04
   4  0.206  0.206  0.118-   2 2.97   2 2.97   2 2.97
   5  0.794  0.794  0.882-   1 2.97   1 2.97   1 2.97
 
  LATTYP: Found a trigonal (rhomboedric) cell.
 ALAT       =     9.8410637246
 COS(alpha) =     0.9115969884
  
  Lattice vectors:
  
 A1 = (   2.0690000000,  -1.1945390000,   9.5466670000)
 A2 = (   0.0000000000,   2.3890750000,   9.5466670000)
 A3 = (  -2.0690000000,  -1.1945390000,   9.5466670000)


Analysis of symmetry for initial positions (statically):
=====================================================================
 Subroutine PRICEL returns:
 Original cell was already a primitive cell.
 

 Routine SETGRP: Setting up the symmetry group for a 
 trigonal (rhombohedral) supercell.


 Subroutine GETGRP returns: Found 12 space group operations
 (whereof  4 operations were pure point group operations)
 out of a pool of 12 trial point group operations.


The static configuration has the point symmetry C_2h.
 The point group associated with its full space group is D_3d.


Analysis of symmetry for dynamics (positions and initial velocities):
=====================================================================
 Subroutine PRICEL returns:
 Original cell was already a primitive cell.
 

 Routine SETGRP: Setting up the symmetry group for a 
 trigonal (rhombohedral) supercell.


 Subroutine GETGRP returns: Found 12 space group operations
 (whereof  4 operations were pure point group operations)
 out of a pool of 12 trial point group operations.


The dynamic configuration has the point symmetry C_2h.
 The point group associated with its full space group is D_3d.


Analysis of structural, dynamic, and magnetic symmetry:
=====================================================================
 Subroutine PRICEL returns:
 Original cell was already a primitive cell.
 

 Routine SETGRP: Setting up the symmetry group for a 
 trigonal (rhombohedral) supercell.


 Subroutine GETGRP returns: Found 12 space group operations
 (whereof  4 operations were pure point group operations)
 out of a pool of 12 trial point group operations.


The overall configuration has the point symmetry C_2h.
 The point group associated with its full space group is D_3d.


 Subroutine INISYM returns: Found 12 space group operations
 (whereof  4 operations are pure point group operations),
 and found     1 'primitive' translations


----------------------------------------------------------------------------------------

                                     Primitive cell                                     

  volume of cell :     141.5675

  direct lattice vectors                    reciprocal lattice vectors
    -2.069000000 -3.583614000  0.000000000    -0.241662639 -0.139523955  0.034916185
     2.069000000 -3.583614000  0.000000000     0.241662639 -0.139523955  0.034916185
     0.000000000  2.389075000  9.546667000     0.000000000  0.000000000  0.104748600

  length of vectors
     4.138000761  4.138000761  9.841063467     0.281223941  0.281223941  0.104748600

  position of ions in fractional coordinates (direct lattice)
     0.399000000  0.399000000  0.697000000
     0.601000000  0.601000000  0.303000000
     1.000000000  1.000000000  0.500000000
     0.206000000  0.206000000  0.118000000
     0.794000000  0.794000000  0.882000000

  ion indices of the primitive-cell ions
   primitive index   ion index
                 1           1
                 2           2
                 3           3
                 4           4
                 5           5

----------------------------------------------------------------------------------------

 
 
 KPOINTS: k-points for bandstructure G-F-Q-Z-G    

Interpolating k-points between supplied coordinates.

 Line segments in fractional coordinates (reciprocal lattice):
    0.000000  0.000000  0.000000  ...  0.000000  0.000000  0.500000
    0.000000  0.000000  0.500000  ...  0.500000  0.500000  0.000000
    0.500000  0.500000  0.000000  ...  0.000000  0.000000  0.000000
    0.000000  0.000000  0.000000  ...  0.500000  0.000000  0.000000

 Generated    30 points on each line segment, for a total of    120 k-points:

 Following reciprocal coordinates:
            Coordinates               Weight
  0.000000  0.000000  0.000000      0.008333
  0.000000  0.000000  0.017241      0.008333
  0.000000  0.000000  0.034483      0.008333
  0.000000  0.000000  0.051724      0.008333
  0.000000  0.000000  0.068966      0.008333
  0.000000  0.000000  0.086207      0.008333
  0.000000  0.000000  0.103448      0.008333
  0.000000  0.000000  0.120690      0.008333
  0.000000  0.000000  0.137931      0.008333
  0.000000  0.000000  0.155172      0.008333
  0.000000  0.000000  0.172414      0.008333
  0.000000  0.000000  0.189655      0.008333
  0.000000  0.000000  0.206897      0.008333
  0.000000  0.000000  0.224138      0.008333
  0.000000  0.000000  0.241379      0.008333
  0.000000  0.000000  0.258621      0.008333
  0.000000  0.000000  0.275862      0.008333
  0.000000  0.000000  0.293103      0.008333
  0.000000  0.000000  0.310345      0.008333
  0.000000  0.000000  0.327586      0.008333
  0.000000  0.000000  0.344828      0.008333
  0.000000  0.000000  0.362069      0.008333
  0.000000  0.000000  0.379310      0.008333
  0.000000  0.000000  0.396552      0.008333
  0.000000  0.000000  0.413793      0.008333
  0.000000  0.000000  0.431034      0.008333
  0.000000  0.000000  0.448276      0.008333
  0.000000  0.000000  0.465517      0.008333
  0.000000  0.000000  0.482759      0.008333
  0.000000  0.000000  0.500000      0.008333
  0.000000  0.000000  0.500000      0.008333
  0.017241  0.017241  0.482759      0.008333
  0.034483  0.034483  0.465517      0.008333
  0.051724  0.051724  0.448276      0.008333
  0.068966  0.068966  0.431034      0.008333
  0.086207  0.086207  0.413793      0.008333
  0.103448  0.103448  0.396552      0.008333
  0.120690  0.120690  0.379310      0.008333
  0.137931  0.137931  0.362069      0.008333
  0.155172  0.155172  0.344828      0.008333
  0.172414  0.172414  0.327586      0.008333
  0.189655  0.189655  0.310345      0.008333
  0.206897  0.206897  0.293103      0.008333
  0.224138  0.224138  0.275862      0.008333
  0.241379  0.241379  0.258621      0.008333
  0.258621  0.258621  0.241379      0.008333
  0.275862  0.275862  0.224138      0.008333
  0.293103  0.293103  0.206897      0.008333
  0.310345  0.310345  0.189655      0.008333
  0.327586  0.327586  0.172414      0.008333
  0.344828  0.344828  0.155172      0.008333
  0.362069  0.362069  0.137931      0.008333
  0.379310  0.379310  0.120690      0.008333
  0.396552  0.396552  0.103448      0.008333
  0.413793  0.413793  0.086207      0.008333
  0.431034  0.431034  0.068966      0.008333
  0.448276  0.448276  0.051724      0.008333
  0.465517  0.465517  0.034483      0.008333
  0.482759  0.482759  0.017241      0.008333
  0.500000  0.500000  0.000000      0.008333
  0.500000  0.500000  0.000000      0.008333
  0.482759  0.482759  0.000000      0.008333
  0.465517  0.465517  0.000000      0.008333
  0.448276  0.448276  0.000000      0.008333
  0.431034  0.431034  0.000000      0.008333
  0.413793  0.413793  0.000000      0.008333
  0.396552  0.396552  0.000000      0.008333
  0.379310  0.379310  0.000000      0.008333
  0.362069  0.362069  0.000000      0.008333
  0.344828  0.344828  0.000000      0.008333
  0.327586  0.327586  0.000000      0.008333
  0.310345  0.310345  0.000000      0.008333
  0.293103  0.293103  0.000000      0.008333
  0.275862  0.275862  0.000000      0.008333
  0.258621  0.258621  0.000000      0.008333
  0.241379  0.241379  0.000000      0.008333
  0.224138  0.224138  0.000000      0.008333
  0.206897  0.206897  0.000000      0.008333
  0.189655  0.189655  0.000000      0.008333
  0.172414  0.172414  0.000000      0.008333
  0.155172  0.155172  0.000000      0.008333
  0.137931  0.137931  0.000000      0.008333
  0.120690  0.120690  0.000000      0.008333
  0.103448  0.103448  0.000000      0.008333
  0.086207  0.086207  0.000000      0.008333
  0.068966  0.068966  0.000000      0.008333
  0.051724  0.051724  0.000000      0.008333
  0.034483  0.034483  0.000000      0.008333
  0.017241  0.017241  0.000000      0.008333
  0.000000  0.000000  0.000000      0.008333
  0.000000  0.000000  0.000000      0.008333
  0.017241  0.000000  0.000000      0.008333
  0.034483  0.000000  0.000000      0.008333
  0.051724  0.000000  0.000000      0.008333
  0.068966  0.000000  0.000000      0.008333
  0.086207  0.000000  0.000000      0.008333
  0.103448  0.000000  0.000000      0.008333
  0.120690  0.000000  0.000000      0.008333
  0.137931  0.000000  0.000000      0.008333
  0.155172  0.000000  0.000000      0.008333
  0.172414  0.000000  0.000000      0.008333
  0.189655  0.000000  0.000000      0.008333
  0.206897  0.000000  0.000000      0.008333
  0.224138  0.000000  0.000000      0.008333
  0.241379  0.000000  0.000000      0.008333
  0.258621  0.000000  0.000000      0.008333
  0.275862  0.000000  0.000000      0.008333
  0.293103  0.000000  0.000000      0.008333
  0.310345  0.000000  0.000000      0.008333
  0.327586  0.000000  0.000000      0.008333
  0.344828  0.000000  0.000000      0.008333
  0.362069  0.000000  0.000000      0.008333
  0.379310  0.000000  0.000000      0.008333
  0.396552  0.000000  0.000000      0.008333
  0.413793  0.000000  0.000000      0.008333
  0.431034  0.000000  0.000000      0.008333
  0.448276  0.000000  0.000000      0.008333
  0.465517  0.000000  0.000000      0.008333
  0.482759  0.000000  0.000000      0.008333
  0.500000  0.000000  0.000000      0.008333

 Following cartesian coordinates:
            Coordinates               Weight
  0.000000  0.000000  0.000000      0.008333
  0.000000  0.000000  0.001806      0.008333
  0.000000  0.000000  0.003612      0.008333
  0.000000  0.000000  0.005418      0.008333
  0.000000  0.000000  0.007224      0.008333
  0.000000  0.000000  0.009030      0.008333
  0.000000  0.000000  0.010836      0.008333
  0.000000  0.000000  0.012642      0.008333
  0.000000  0.000000  0.014448      0.008333
  0.000000  0.000000  0.016254      0.008333
  0.000000  0.000000  0.018060      0.008333
  0.000000  0.000000  0.019866      0.008333
  0.000000  0.000000  0.021672      0.008333
  0.000000  0.000000  0.023478      0.008333
  0.000000  0.000000  0.025284      0.008333
  0.000000  0.000000  0.027090      0.008333
  0.000000  0.000000  0.028896      0.008333
  0.000000  0.000000  0.030702      0.008333
  0.000000  0.000000  0.032508      0.008333
  0.000000  0.000000  0.034314      0.008333
  0.000000  0.000000  0.036120      0.008333
  0.000000  0.000000  0.037926      0.008333
  0.000000  0.000000  0.039732      0.008333
  0.000000  0.000000  0.041538      0.008333
  0.000000  0.000000  0.043344      0.008333
  0.000000  0.000000  0.045150      0.008333
  0.000000  0.000000  0.046956      0.008333
  0.000000  0.000000  0.048762      0.008333
  0.000000  0.000000  0.050568      0.008333
  0.000000  0.000000  0.052374      0.008333
  0.000000  0.000000  0.052374      0.008333
 -0.000000 -0.004811  0.051772      0.008333
 -0.000000 -0.009622  0.051170      0.008333
  0.000000 -0.014434  0.050568      0.008333
 -0.000000 -0.019245  0.049966      0.008333
 -0.000000 -0.024056  0.049364      0.008333
  0.000000 -0.028867  0.048762      0.008333
 -0.000000 -0.033678  0.048160      0.008333
 -0.000000 -0.038489  0.047558      0.008333
  0.000000 -0.043301  0.046956      0.008333
 -0.000000 -0.048112  0.046354      0.008333
 -0.000000 -0.052923  0.045752      0.008333
  0.000000 -0.057734  0.045150      0.008333
 -0.000000 -0.062545  0.044548      0.008333
 -0.000000 -0.067356  0.043946      0.008333
  0.000000 -0.072168  0.043344      0.008333
 -0.000000 -0.076979  0.042742      0.008333
 -0.000000 -0.081790  0.042140      0.008333
  0.000000 -0.086601  0.041538      0.008333
 -0.000000 -0.091412  0.040936      0.008333
 -0.000000 -0.096223  0.040334      0.008333
  0.000000 -0.101035  0.039732      0.008333
 -0.000000 -0.105846  0.039130      0.008333
 -0.000000 -0.110657  0.038528      0.008333
  0.000000 -0.115468  0.037926      0.008333
 -0.000000 -0.120279  0.037324      0.008333
 -0.000000 -0.125090  0.036722      0.008333
  0.000000 -0.129902  0.036120      0.008333
 -0.000000 -0.134713  0.035518      0.008333
  0.000000 -0.139524  0.034916      0.008333
  0.000000 -0.139524  0.034916      0.008333
 -0.000000 -0.134713  0.033712      0.008333
  0.000000 -0.129902  0.032508      0.008333
 -0.000000 -0.125090  0.031304      0.008333
 -0.000000 -0.120279  0.030100      0.008333
  0.000000 -0.115468  0.028896      0.008333
 -0.000000 -0.110657  0.027692      0.008333
 -0.000000 -0.105846  0.026488      0.008333
  0.000000 -0.101035  0.025284      0.008333
 -0.000000 -0.096223  0.024080      0.008333
 -0.000000 -0.091412  0.022876      0.008333
  0.000000 -0.086601  0.021672      0.008333
 -0.000000 -0.081790  0.020468      0.008333
 -0.000000 -0.076979  0.019264      0.008333
  0.000000 -0.072168  0.018060      0.008333
 -0.000000 -0.067356  0.016856      0.008333
 -0.000000 -0.062545  0.015652      0.008333
  0.000000 -0.057734  0.014448      0.008333
 -0.000000 -0.052923  0.013244      0.008333
 -0.000000 -0.048112  0.012040      0.008333
  0.000000 -0.043301  0.010836      0.008333
 -0.000000 -0.038489  0.009632      0.008333
 -0.000000 -0.033678  0.008428      0.008333
  0.000000 -0.028867  0.007224      0.008333
 -0.000000 -0.024056  0.006020      0.008333
 -0.000000 -0.019245  0.004816      0.008333
  0.000000 -0.014434  0.003612      0.008333
  0.000000 -0.009622  0.002408      0.008333
  0.000000 -0.004811  0.001204      0.008333
  0.000000 -0.000000  0.000000      0.008333
  0.000000  0.000000  0.000000      0.008333
 -0.004167 -0.002406  0.000602      0.008333
 -0.008333 -0.004811  0.001204      0.008333
 -0.012500 -0.007217  0.001806      0.008333
 -0.016666 -0.009622  0.002408      0.008333
 -0.020833 -0.012028  0.003010      0.008333
 -0.025000 -0.014434  0.003612      0.008333
 -0.029166 -0.016839  0.004214      0.008333
 -0.033333 -0.019245  0.004816      0.008333
 -0.037499 -0.021650  0.005418      0.008333
 -0.041666 -0.024056  0.006020      0.008333
 -0.045833 -0.026461  0.006622      0.008333
 -0.049999 -0.028867  0.007224      0.008333
 -0.054166 -0.031273  0.007826      0.008333
 -0.058332 -0.033678  0.008428      0.008333
 -0.062499 -0.036084  0.009030      0.008333
 -0.066666 -0.038489  0.009632      0.008333
 -0.070832 -0.040895  0.010234      0.008333
 -0.074999 -0.043301  0.010836      0.008333
 -0.079165 -0.045706  0.011438      0.008333
 -0.083332 -0.048112  0.012040      0.008333
 -0.087499 -0.050517  0.012642      0.008333
 -0.091665 -0.052923  0.013244      0.008333
 -0.095832 -0.055328  0.013846      0.008333
 -0.099998 -0.057734  0.014448      0.008333
 -0.104165 -0.060140  0.015050      0.008333
 -0.108332 -0.062545  0.015652      0.008333
 -0.112498 -0.064951  0.016254      0.008333
 -0.116665 -0.067356  0.016856      0.008333
 -0.120831 -0.069762  0.017458      0.008333
 


--------------------------------------------------------------------------------------------------------




 Dimension of arrays:
   k-points           NKPTS =    120   k-points in BZ     NKDIM =    120   number of bands    NBANDS=     56
   number of dos      NEDOS =    301   number of ions     NIONS =      5
   non local maximal  LDIM  =      5   non local SUM 2l+1 LMDIM =     13
   total plane-waves  NPLWV =  13608
   max r-space proj   IRMAX =      1   max aug-charges    IRDMAX=   9355
   dimension x,y,z NGX =    18 NGY =   18 NGZ =   42
   dimension x,y,z NGXF=    36 NGYF=   36 NGZF=   84
   support grid    NGXF=    36 NGYF=   36 NGZF=   84
   ions per type =               2   3
   NGX,Y,Z   is equivalent  to a cutoff of   7.23,  7.23,  7.10 a.u.
   NGXF,Y,Z  is equivalent  to a cutoff of  14.46, 14.46, 14.19 a.u.

 SYSTEM =  Bi2Se3                                  
 POSCAR =  Bi2Se3                                  

 Startparameter for this run:
   NWRITE =      2    write-flag & timer
   PREC   = n         normal or accurate (medium, high low for compatibility)
   ISTART =      1    job   : 0-new  1-cont  2-samecut
   ICHARG =     11    charge: 1-file 2-atom 10-const
   ISPIN  =      1    spin polarized calculation?
   LNONCOLLINEAR =      T non collinear calculations
   LSORBIT =      T    spin-orbit coupling
   INIWAV =      1    electr: 0-lowe 1-rand  2-diag
   LASPH  =      F    aspherical Exc in radial PAW
 Electronic Relaxation 1
   ENCUT  =  300.0 eV  22.05 Ry    4.70 a.u.   5.84  5.84 13.90*2*pi/ulx,y,z
   ENINI  =  300.0     initial cutoff
   ENAUG  =  446.8 eV  augmentation charge cutoff
   NELM   =     60;   NELMIN=  2; NELMDL=  0     # of ELM steps 
   EDIFF  = 0.1E-07   stopping-criterion for ELM
   LREAL  =      F    real-space projection
   NLSPLINE    = F    spline interpolate recip. space projectors
   LCOMPAT=      F    compatible to vasp.4.4
   GGA_COMPAT  = T    GGA compatible to vasp.4.4-vasp.4.6
   LMAXPAW     = -100 max onsite density
   LMAXMIX     =    2 max onsite mixed and CHGCAR
   VOSKOWN=      0    Vosko Wilk Nusair interpolation
   ROPT   =    0.00000   0.00000
 Ionic relaxation
   EDIFFG = 0.1E-06   stopping-criterion for IOM
   NSW    =      0    number of steps for IOM
   NBLOCK =      1;   KBLOCK =      1    inner block; outer block 
   IBRION =     -1    ionic relax: 0-MD 1-quasi-New 2-CG
   NFREE  =      0    steps in history (QN), initial steepest desc. (CG)
   ISIF   =      2    stress and relaxation
   IWAVPR =     10    prediction:  0-non 1-charg 2-wave 3-comb
   ISYM   =      2    0-nonsym 1-usesym 2-fastsym
   LCORR  =      T    Harris-Foulkes like correction to forces

   POTIM  = 0.5000    time-step for ionic-motion
   TEIN   =    0.0    initial temperature
   TEBEG  =    0.0;   TEEND  =   0.0 temperature during run
   SMASS  =  -3.00    Nose mass-parameter (am)
   estimated Nose-frequenzy (Omega)   =  0.10E-29 period in steps = 0.13E+47 mass=  -0.391E-27a.u.
   SCALEE = 1.0000    scale energy and forces
   NPACO  =    256;   APACO  = 10.0  distance and # of slots for P.C.
   PSTRESS=    0.0 pullay stress

  Mass of Ions in am
   POMASS = 208.98 78.96
  Ionic Valenz
   ZVAL   =   5.00  6.00
  Atomic Wigner-Seitz radii
   RWIGS  =  -1.00 -1.00
  virtual crystal weights 
   VCA    =   1.00  1.00
   NELECT =      28.0000    total number of electrons
   NUPDOWN=      -1.0000    fix difference up-down

 DOS related values:
   EMIN   =  10.00;   EMAX   =-10.00  energy-range for DOS
   EFERMI =   0.00
   ISMEAR =     0;   SIGMA  =   0.05  broadening in eV -4-tet -1-fermi 0-gaus

 Electronic relaxation 2 (details)
   IALGO  =     38    algorithm
   LDIAG  =      T    sub-space diagonalisation (order eigenvalues)
   LSUBROT=      F    optimize rotation matrix (better conditioning)
   TURBO    =      0    0=normal 1=particle mesh
   IRESTART =      0    0=no restart 2=restart with 2 vectors
   NREBOOT  =      0    no. of reboots
   NMIN     =      0    reboot dimension
   EREF     =   0.00    reference energy to select bands
   IMIX   =      4    mixing-type and parameters
     AMIX     =   0.40;   BMIX     =  1.00
     AMIX_MAG =   1.60;   BMIX_MAG =  1.00
     AMIN     =   0.10
     WC   =   100.;   INIMIX=   1;  MIXPRE=   1;  MAXMIX= -45

 Intra band minimization:
   WEIMIN = 0.0000     energy-eigenvalue tresh-hold
   EBREAK =  0.45E-10  absolut break condition
   DEPER  =   0.30     relativ break condition  

   TIME   =   0.40     timestep for ELM

  volume/ion in A,a.u.               =      28.31       191.07
  Fermi-wavevector in a.u.,A,eV,Ry     =   0.953834  1.802486 12.378583  0.909800
  Thomas-Fermi vector in A             =   2.082526
 
 Write flags
   LWAVE        =      T    write WAVECAR
   LDOWNSAMPLE  =      F    k-point downsampling of WAVECAR
   LCHARG       =      T    write CHGCAR
   LVTOT        =      F    write LOCPOT, total local potential
   LVHAR        =      F    write LOCPOT, Hartree potential only
   LELF         =      F    write electronic localiz. function (ELF)
   LORBIT       =     11    0 simple, 1 ext, 2 COOP (PROOUT), +10 PAW based schemes


 Dipole corrections
   LMONO  =      F    monopole corrections only (constant potential shift)
   LDIPOL =      F    correct potential (dipole corrections)
   IDIPOL =      0    1-x, 2-y, 3-z, 4-all directions 
   EPSILON=  1.0000000 bulk dielectric constant

 Exchange correlation treatment:
   GGA     =    PE    GGA type
   LEXCH   =     8    internal setting for exchange type
   LIBXC   =     F    Libxc                    
   VOSKOWN =     0    Vosko Wilk Nusair interpolation
   LHFCALC =     F    Hartree Fock is set to
   LHFONE  =     F    Hartree Fock one center treatment
   AEXX    =    0.0000 exact exchange contribution

 Linear response parameters
   LEPSILON=     F    determine dielectric tensor
   LRPA    =     F    only Hartree local field effects (RPA)
   LNABLA  =     F    use nabla operator in PAW spheres
   LVEL    =     F    velocity operator in full k-point grid
   CSHIFT  =0.1000    complex shift for real part using Kramers Kronig
   OMEGAMAX=  -1.0    maximum frequency
   DEG_THRESHOLD= 0.2000000E-02 threshold for treating states as degnerate
   RTIME   =   -0.100 relaxation time in fs
  (WPLASMAI=    0.000 imaginary part of plasma frequency in eV, 0.658/RTIME)
   DFIELD  = 0.0000000 0.0000000 0.0000000 field for delta impulse in time
 
  Optional k-point grid parameters
   LKPOINTS_OPT  =     F    use optional k-point grid
   KPOINTS_OPT_MODE=     1    mode for optional k-point grid
 
 Orbital magnetization related:
   ORBITALMAG=     F  switch on orbital magnetization
   LCHIMAG   =     F  perturbation theory with respect to B field
   DQ        =  0.001000  dq finite difference perturbation B field
   LLRAUG    =     F  two centre corrections for induced B field



--------------------------------------------------------------------------------------------------------


 Static calculation
 charge density and potential remain constant during run
 non collinear spin polarized calculation
 Variant of blocked Davidson
 Davidson routine will perform the subspace rotation
 perform sub-space diagonalisation
    after iterative eigenvector-optimisation
 no mixing
 using additional bands           42
 reciprocal scheme for non local part
 use partial core corrections
 calculate Harris-corrections to forces 
   (improved forces if not selfconsistent)
 use gradient corrections 
 WARNING: stress and forces are not correct
  (second derivative of E(xc) not defined)
 use of overlap-Matrix (Vanderbilt PP)
 Gauss-broadening in eV      SIGMA  =   0.05


--------------------------------------------------------------------------------------------------------


  energy-cutoff  :      300.00
  volume of cell :      141.57
      direct lattice vectors                 reciprocal lattice vectors
    -2.069000000 -3.583614000  0.000000000    -0.241662639 -0.139523955  0.034916185
     2.069000000 -3.583614000  0.000000000     0.241662639 -0.139523955  0.034916185
     0.000000000  2.389075000  9.546667000     0.000000000  0.000000000  0.104748600

  length of vectors
     4.138000761  4.138000761  9.841063467     0.281223941  0.281223941  0.104748600


 
 old parameters found on file WAVECAR:
  energy-cutoff  :      300.00
  volume of cell :      141.57
      direct lattice vectors                 reciprocal lattice vectors
    -2.069000000 -3.583614000  0.000000000    -0.241662639 -0.139523955  0.034916185
     2.069000000 -3.583614000  0.000000000     0.241662639 -0.139523955  0.034916185
     0.000000000  2.389075000  9.546667000     0.000000000  0.000000000  0.104748600

  length of vectors

 
 k-points in units of 2pi/SCALE and weight: k-points for bandstructure G-F-Q-Z-G    
   0.00000000  0.00000000  0.00000000       0.008
   0.00000000  0.00000000  0.00180601       0.008
   0.00000000  0.00000000  0.00361202       0.008
   0.00000000  0.00000000  0.00541803       0.008
   0.00000000  0.00000000  0.00722404       0.008
   0.00000000  0.00000000  0.00903005       0.008
   0.00000000  0.00000000  0.01083606       0.008
   0.00000000  0.00000000  0.01264207       0.008
   0.00000000  0.00000000  0.01444808       0.008
   0.00000000  0.00000000  0.01625409       0.008
   0.00000000  0.00000000  0.01806010       0.008
   0.00000000  0.00000000  0.01986611       0.008
   0.00000000  0.00000000  0.02167212       0.008
   0.00000000  0.00000000  0.02347813       0.008
   0.00000000  0.00000000  0.02528414       0.008
   0.00000000  0.00000000  0.02709016       0.008
   0.00000000  0.00000000  0.02889617       0.008
   0.00000000  0.00000000  0.03070218       0.008
   0.00000000  0.00000000  0.03250819       0.008
   0.00000000  0.00000000  0.03431420       0.008
   0.00000000  0.00000000  0.03612021       0.008
   0.00000000  0.00000000  0.03792622       0.008
   0.00000000  0.00000000  0.03973223       0.008
   0.00000000  0.00000000  0.04153824       0.008
   0.00000000  0.00000000  0.04334425       0.008
   0.00000000  0.00000000  0.04515026       0.008
   0.00000000  0.00000000  0.04695627       0.008
   0.00000000  0.00000000  0.04876228       0.008
   0.00000000  0.00000000  0.05056829       0.008
   0.00000000  0.00000000  0.05237430       0.008
   0.00000000  0.00000000  0.05237430       0.008
   0.00000000 -0.00481117  0.05177230       0.008
   0.00000000 -0.00962234  0.05117029       0.008
  -0.00000000 -0.01443351  0.05056829       0.008
   0.00000000 -0.01924468  0.04996628       0.008
   0.00000000 -0.02405585  0.04936428       0.008
  -0.00000000 -0.02886703  0.04876228       0.008
   0.00000000 -0.03367820  0.04816027       0.008
   0.00000000 -0.03848937  0.04755827       0.008
  -0.00000000 -0.04330054  0.04695626       0.008
   0.00000000 -0.04811171  0.04635426       0.008
   0.00000000 -0.05292288  0.04575226       0.008
  -0.00000000 -0.05773405  0.04515025       0.008
   0.00000000 -0.06254522  0.04454825       0.008
   0.00000000 -0.06735639  0.04394624       0.008
  -0.00000000 -0.07216756  0.04334424       0.008
   0.00000000 -0.07697873  0.04274224       0.008
   0.00000000 -0.08178990  0.04214023       0.008
  -0.00000000 -0.08660108  0.04153823       0.008
   0.00000000 -0.09141225  0.04093622       0.008
   0.00000000 -0.09622342  0.04033422       0.008
  -0.00000000 -0.10103459  0.03973222       0.008
   0.00000000 -0.10584576  0.03913021       0.008
   0.00000000 -0.11065693  0.03852821       0.008
  -0.00000000 -0.11546810  0.03792621       0.008
   0.00000000 -0.12027927  0.03732420       0.008
   0.00000000 -0.12509044  0.03672220       0.008
  -0.00000000 -0.12990161  0.03612019       0.008
   0.00000000 -0.13471278  0.03551819       0.008
   0.00000000 -0.13952396  0.03491619       0.008
   0.00000000 -0.13952396  0.03491619       0.008
   0.00000000 -0.13471278  0.03371218       0.008
  -0.00000000 -0.12990161  0.03250817       0.008
   0.00000000 -0.12509044  0.03130417       0.008
   0.00000000 -0.12027927  0.03010016       0.008
  -0.00000000 -0.11546810  0.02889615       0.008
   0.00000000 -0.11065693  0.02769215       0.008
   0.00000000 -0.10584576  0.02648814       0.008
  -0.00000000 -0.10103459  0.02528413       0.008
   0.00000000 -0.09622342  0.02408013       0.008
   0.00000000 -0.09141225  0.02287612       0.008
  -0.00000000 -0.08660108  0.02167212       0.008
   0.00000000 -0.08178990  0.02046811       0.008
   0.00000000 -0.07697873  0.01926410       0.008
  -0.00000000 -0.07216756  0.01806010       0.008
   0.00000000 -0.06735639  0.01685609       0.008
   0.00000000 -0.06254522  0.01565208       0.008
  -0.00000000 -0.05773405  0.01444808       0.008
   0.00000000 -0.05292288  0.01324407       0.008
   0.00000000 -0.04811171  0.01204006       0.008
  -0.00000000 -0.04330054  0.01083606       0.008
   0.00000000 -0.03848937  0.00963205       0.008
   0.00000000 -0.03367820  0.00842804       0.008
  -0.00000000 -0.02886703  0.00722404       0.008
   0.00000000 -0.02405585  0.00602003       0.008
   0.00000000 -0.01924468  0.00481603       0.008
  -0.00000000 -0.01443351  0.00361202       0.008
  -0.00000000 -0.00962234  0.00240801       0.008
  -0.00000000 -0.00481117  0.00120401       0.008
   0.00000000 -0.00000000  0.00000000       0.008
   0.00000000  0.00000000  0.00000000       0.008
  -0.00416660 -0.00240559  0.00060200       0.008
  -0.00833319 -0.00481117  0.00120401       0.008
  -0.01249979 -0.00721676  0.00180601       0.008
  -0.01666639 -0.00962234  0.00240801       0.008
  -0.02083299 -0.01202793  0.00301002       0.008
  -0.02499958 -0.01443351  0.00361202       0.008
  -0.02916618 -0.01683910  0.00421402       0.008
  -0.03333278 -0.01924468  0.00481603       0.008
  -0.03749938 -0.02165027  0.00541803       0.008
  -0.04166597 -0.02405585  0.00602003       0.008
  -0.04583257 -0.02646144  0.00662204       0.008
  -0.04999917 -0.02886703  0.00722404       0.008
  -0.05416576 -0.03127261  0.00782604       0.008
  -0.05833236 -0.03367820  0.00842804       0.008
  -0.06249896 -0.03608378  0.00903005       0.008
  -0.06666556 -0.03848937  0.00963205       0.008
  -0.07083215 -0.04089495  0.01023405       0.008
  -0.07499875 -0.04330054  0.01083606       0.008
  -0.07916535 -0.04570612  0.01143806       0.008
  -0.08333194 -0.04811171  0.01204006       0.008
  -0.08749854 -0.05051729  0.01264207       0.008
  -0.09166514 -0.05292288  0.01324407       0.008
  -0.09583174 -0.05532847  0.01384607       0.008
  -0.09999833 -0.05773405  0.01444808       0.008
  -0.10416493 -0.06013964  0.01505008       0.008
  -0.10833153 -0.06254522  0.01565208       0.008
  -0.11249813 -0.06495081  0.01625409       0.008
  -0.11666472 -0.06735639  0.01685609       0.008
  -0.12083132 -0.06976198  0.01745809       0.008
 
 k-points in reciprocal lattice and weights: k-points for bandstructure G-F-Q-Z-G    
   0.00000000  0.00000000  0.00000000       0.008
   0.00000000  0.00000000  0.01724138       0.008
   0.00000000  0.00000000  0.03448276       0.008
   0.00000000  0.00000000  0.05172414       0.008
   0.00000000  0.00000000  0.06896552       0.008
   0.00000000  0.00000000  0.08620690       0.008
   0.00000000  0.00000000  0.10344828       0.008
   0.00000000  0.00000000  0.12068966       0.008
   0.00000000  0.00000000  0.13793103       0.008
   0.00000000  0.00000000  0.15517241       0.008
   0.00000000  0.00000000  0.17241379       0.008
   0.00000000  0.00000000  0.18965517       0.008
   0.00000000  0.00000000  0.20689655       0.008
   0.00000000  0.00000000  0.22413793       0.008
   0.00000000  0.00000000  0.24137931       0.008
   0.00000000  0.00000000  0.25862069       0.008
   0.00000000  0.00000000  0.27586207       0.008
   0.00000000  0.00000000  0.29310345       0.008
   0.00000000  0.00000000  0.31034483       0.008
   0.00000000  0.00000000  0.32758621       0.008
   0.00000000  0.00000000  0.34482759       0.008
   0.00000000  0.00000000  0.36206897       0.008
   0.00000000  0.00000000  0.37931034       0.008
   0.00000000  0.00000000  0.39655172       0.008
   0.00000000  0.00000000  0.41379310       0.008
   0.00000000  0.00000000  0.43103448       0.008
   0.00000000  0.00000000  0.44827586       0.008
   0.00000000  0.00000000  0.46551724       0.008
   0.00000000  0.00000000  0.48275862       0.008
   0.00000000  0.00000000  0.50000000       0.008
   0.00000000  0.00000000  0.50000000       0.008
   0.01724138  0.01724138  0.48275862       0.008
   0.03448276  0.03448276  0.46551724       0.008
   0.05172414  0.05172414  0.44827586       0.008
   0.06896552  0.06896552  0.43103448       0.008
   0.08620690  0.08620690  0.41379310       0.008
   0.10344828  0.10344828  0.39655172       0.008
   0.12068966  0.12068966  0.37931034       0.008
   0.13793103  0.13793103  0.36206897       0.008
   0.15517241  0.15517241  0.34482759       0.008
   0.17241379  0.17241379  0.32758621       0.008
   0.18965517  0.18965517  0.31034483       0.008
   0.20689655  0.20689655  0.29310345       0.008
   0.22413793  0.22413793  0.27586207       0.008
   0.24137931  0.24137931  0.25862069       0.008
   0.25862069  0.25862069  0.24137931       0.008
   0.27586207  0.27586207  0.22413793       0.008
   0.29310345  0.29310345  0.20689655       0.008
   0.31034483  0.31034483  0.18965517       0.008
   0.32758621  0.32758621  0.17241379       0.008
   0.34482759  0.34482759  0.15517241       0.008
   0.36206897  0.36206897  0.13793103       0.008
   0.37931034  0.37931034  0.12068966       0.008
   0.39655172  0.39655172  0.10344828       0.008
   0.41379310  0.41379310  0.08620690       0.008
   0.43103448  0.43103448  0.06896552       0.008
   0.44827586  0.44827586  0.05172414       0.008
   0.46551724  0.46551724  0.03448276       0.008
   0.48275862  0.48275862  0.01724138       0.008
   0.50000000  0.50000000  0.00000000       0.008
   0.50000000  0.50000000  0.00000000       0.008
   0.48275862  0.48275862  0.00000000       0.008
   0.46551724  0.46551724  0.00000000       0.008
   0.44827586  0.44827586  0.00000000       0.008
   0.43103448  0.43103448  0.00000000       0.008
   0.41379310  0.41379310  0.00000000       0.008
   0.39655172  0.39655172  0.00000000       0.008
   0.37931034  0.37931034  0.00000000       0.008
   0.36206897  0.36206897  0.00000000       0.008
   0.34482759  0.34482759  0.00000000       0.008
   0.32758621  0.32758621  0.00000000       0.008
   0.31034483  0.31034483  0.00000000       0.008
   0.29310345  0.29310345  0.00000000       0.008
   0.27586207  0.27586207  0.00000000       0.008
   0.25862069  0.25862069  0.00000000       0.008
   0.24137931  0.24137931  0.00000000       0.008
   0.22413793  0.22413793  0.00000000       0.008
   0.20689655  0.20689655  0.00000000       0.008
   0.18965517  0.18965517  0.00000000       0.008
   0.17241379  0.17241379  0.00000000       0.008
   0.15517241  0.15517241  0.00000000       0.008
   0.13793103  0.13793103  0.00000000       0.008
   0.12068966  0.12068966  0.00000000       0.008
   0.10344828  0.10344828  0.00000000       0.008
   0.08620690  0.08620690  0.00000000       0.008
   0.06896552  0.06896552  0.00000000       0.008
   0.05172414  0.05172414  0.00000000       0.008
   0.03448276  0.03448276  0.00000000       0.008
   0.01724138  0.01724138  0.00000000       0.008
   0.00000000  0.00000000  0.00000000       0.008
   0.00000000  0.00000000  0.00000000       0.008
   0.01724138  0.00000000  0.00000000       0.008
   0.03448276  0.00000000  0.00000000       0.008
   0.05172414  0.00000000  0.00000000       0.008
   0.06896552  0.00000000  0.00000000       0.008
   0.08620690  0.00000000  0.00000000       0.008
   0.10344828  0.00000000  0.00000000       0.008
   0.12068966  0.00000000  0.00000000       0.008
   0.13793103  0.00000000  0.00000000       0.008
   0.15517241  0.00000000  0.00000000       0.008
   0.17241379  0.00000000  0.00000000       0.008
   0.18965517  0.00000000  0.00000000       0.008
   0.20689655  0.00000000  0.00000000       0.008
   0.22413793  0.00000000  0.00000000       0.008
   0.24137931  0.00000000  0.00000000       0.008
   0.25862069  0.00000000  0.00000000       0.008
   0.27586207  0.00000000  0.00000000       0.008
   0.29310345  0.00000000  0.00000000       0.008
   0.31034483  0.00000000  0.00000000       0.008
   0.32758621  0.00000000  0.00000000       0.008
   0.34482759  0.00000000  0.00000000       0.008
   0.36206897  0.00000000  0.00000000       0.008
   0.37931034  0.00000000  0.00000000       0.008
   0.39655172  0.00000000  0.00000000       0.008
   0.41379310  0.00000000  0.00000000       0.008
   0.43103448  0.00000000  0.00000000       0.008
   0.44827586  0.00000000  0.00000000       0.008
   0.46551724  0.00000000  0.00000000       0.008
   0.48275862  0.00000000  0.00000000       0.008
   0.50000000  0.00000000  0.00000000       0.008
 
 position of ions in fractional coordinates (direct lattice) 
   0.39900000  0.39900000  0.69700000
   0.60100000  0.60100000  0.30300000
   0.00000000  0.00000000  0.50000000
   0.20600000  0.20600000  0.11800000
   0.79400000  0.79400000  0.88200000
 
 position of ions in cartesian coordinates  (Angst):
   0.00000000 -1.19453870  6.65402690
   0.00000000 -3.58361430  2.89264010
   0.00000000  1.19453750  4.77333350
   0.00000000 -1.19453812  1.12650671
   0.00000000 -3.58361488  8.42016029
 
 Euler angles ALPHA=     0.0000000  BETA=     0.0000000

 transformation matrix from SAXIS to cartesian coordinates
 ---------------------------------------------------------
     1.0000000 m_x     0.0000000 m_y     0.0000000 m_z
     0.0000000 m_x     1.0000000 m_y     0.0000000 m_z
     0.0000000 m_x     0.0000000 m_y     1.0000000 m_z

 transformation matrix from cartesian coordinates to SAXIS
 ---------------------------------------------------------
     1.0000000 m_x     0.0000000 m_y     0.0000000 m_z
     0.0000000 m_x     1.0000000 m_y     0.0000000 m_z
     0.0000000 m_x     0.0000000 m_y     1.0000000 m_z




--------------------------------------------------------------------------------------------------------


 k-point   1 :   0.0000 0.0000 0.0000  plane waves:    3294
 k-point   2 :   0.0000 0.0000 0.0172  plane waves:    3294
 k-point   3 :   0.0000 0.0000 0.0345  plane waves:    3294
 k-point   4 :   0.0000 0.0000 0.0517  plane waves:    3288
 k-point   5 :   0.0000 0.0000 0.0690  plane waves:    3288
 k-point   6 :   0.0000 0.0000 0.0862  plane waves:    3294
 k-point   7 :   0.0000 0.0000 0.1034  plane waves:    3294
 k-point   8 :   0.0000 0.0000 0.1207  plane waves:    3300
 k-point   9 :   0.0000 0.0000 0.1379  plane waves:    3288
 k-point  10 :   0.0000 0.0000 0.1552  plane waves:    3300
 k-point  11 :   0.0000 0.0000 0.1724  plane waves:    3300
 k-point  12 :   0.0000 0.0000 0.1897  plane waves:    3300
 k-point  13 :   0.0000 0.0000 0.2069  plane waves:    3312
 k-point  14 :   0.0000 0.0000 0.2241  plane waves:    3312
 k-point  15 :   0.0000 0.0000 0.2414  plane waves:    3312
 k-point  16 :   0.0000 0.0000 0.2586  plane waves:    3318
 k-point  17 :   0.0000 0.0000 0.2759  plane waves:    3318
 k-point  18 :   0.0000 0.0000 0.2931  plane waves:    3348
 k-point  19 :   0.0000 0.0000 0.3103  plane waves:    3348
 k-point  20 :   0.0000 0.0000 0.3276  plane waves:    3348
 k-point  21 :   0.0000 0.0000 0.3448  plane waves:    3360
 k-point  22 :   0.0000 0.0000 0.3621  plane waves:    3360
 k-point  23 :   0.0000 0.0000 0.3793  plane waves:    3360
 k-point  24 :   0.0000 0.0000 0.3966  plane waves:    3360
 k-point  25 :   0.0000 0.0000 0.4138  plane waves:    3366
 k-point  26 :   0.0000 0.0000 0.4310  plane waves:    3360
 k-point  27 :   0.0000 0.0000 0.4483  plane waves:    3360
 k-point  28 :   0.0000 0.0000 0.4655  plane waves:    3366
 k-point  29 :   0.0000 0.0000 0.4828  plane waves:    3376
 k-point  30 :   0.0000 0.0000 0.5000  plane waves:    3376
 k-point  31 :   0.0000 0.0000 0.5000  plane waves:    3376
 k-point  32 :   0.0172 0.0172 0.4828  plane waves:    3372
 k-point  33 :   0.0345 0.0345 0.4655  plane waves:    3366
 k-point  34 :   0.0517 0.0517 0.4483  plane waves:    3352
 k-point  35 :   0.0690 0.0690 0.4310  plane waves:    3344
 k-point  36 :   0.0862 0.0862 0.4138  plane waves:    3342
 k-point  37 :   0.1034 0.1034 0.3966  plane waves:    3334
 k-point  38 :   0.1207 0.1207 0.3793  plane waves:    3328
 k-point  39 :   0.1379 0.1379 0.3621  plane waves:    3320
 k-point  40 :   0.1552 0.1552 0.3448  plane waves:    3318
 k-point  41 :   0.1724 0.1724 0.3276  plane waves:    3324
 k-point  42 :   0.1897 0.1897 0.3103  plane waves:    3330
 k-point  43 :   0.2069 0.2069 0.2931  plane waves:    3326
 k-point  44 :   0.2241 0.2241 0.2759  plane waves:    3326
 k-point  45 :   0.2414 0.2414 0.2586  plane waves:    3330
 k-point  46 :   0.2586 0.2586 0.2414  plane waves:    3334
 k-point  47 :   0.2759 0.2759 0.2241  plane waves:    3330
 k-point  48 :   0.2931 0.2931 0.2069  plane waves:    3336
 k-point  49 :   0.3103 0.3103 0.1897  plane waves:    3340
 k-point  50 :   0.3276 0.3276 0.1724  plane waves:    3340
 k-point  51 :   0.3448 0.3448 0.1552  plane waves:    3346
 k-point  52 :   0.3621 0.3621 0.1379  plane waves:    3350
 k-point  53 :   0.3793 0.3793 0.1207  plane waves:    3358
 k-point  54 :   0.3966 0.3966 0.1034  plane waves:    3348
 k-point  55 :   0.4138 0.4138 0.0862  plane waves:    3356
 k-point  56 :   0.4310 0.4310 0.0690  plane waves:    3356
 k-point  57 :   0.4483 0.4483 0.0517  plane waves:    3352
 k-point  58 :   0.4655 0.4655 0.0345  plane waves:    3350
 k-point  59 :   0.4828 0.4828 0.0172  plane waves:    3344
 k-point  60 :   0.5000 0.5000 0.0000  plane waves:    3344
 k-point  61 :   0.5000 0.5000 0.0000  plane waves:    3344
 k-point  62 :   0.4828 0.4828 0.0000  plane waves:    3340
 k-point  63 :   0.4655 0.4655 0.0000  plane waves:    3352
 k-point  64 :   0.4483 0.4483 0.0000  plane waves:    3352
 k-point  65 :   0.4310 0.4310 0.0000  plane waves:    3352
 k-point  66 :   0.4138 0.4138 0.0000  plane waves:    3354
 k-point  67 :   0.3966 0.3966 0.0000  plane waves:    3356
 k-point  68 :   0.3793 0.3793 0.0000  plane waves:    3348
 k-point  69 :   0.3621 0.3621 0.0000  plane waves:    3350
 k-point  70 :   0.3448 0.3448 0.0000  plane waves:    3360
 k-point  71 :   0.3276 0.3276 0.0000  plane waves:    3364
 k-point  72 :   0.3103 0.3103 0.0000  plane waves:    3350
 k-point  73 :   0.2931 0.2931 0.0000  plane waves:    3342
 k-point  74 :   0.2759 0.2759 0.0000  plane waves:    3344
 k-point  75 :   0.2586 0.2586 0.0000  plane waves:    3348
 k-point  76 :   0.2414 0.2414 0.0000  plane waves:    3340
 k-point  77 :   0.2241 0.2241 0.0000  plane waves:    3324
 k-point  78 :   0.2069 0.2069 0.0000  plane waves:    3320
 k-point  79 :   0.1897 0.1897 0.0000  plane waves:    3322
 k-point  80 :   0.1724 0.1724 0.0000  plane waves:    3314
 k-point  81 :   0.1552 0.1552 0.0000  plane waves:    3314
 k-point  82 :   0.1379 0.1379 0.0000  plane waves:    3314
 k-point  83 :   0.1207 0.1207 0.0000  plane waves:    3314
 k-point  84 :   0.1034 0.1034 0.0000  plane waves:    3312
 k-point  85 :   0.0862 0.0862 0.0000  plane waves:    3304
 k-point  86 :   0.0690 0.0690 0.0000  plane waves:    3300
 k-point  87 :   0.0517 0.0517 0.0000  plane waves:    3294
 k-point  88 :   0.0345 0.0345 0.0000  plane waves:    3302
 k-point  89 :   0.0172 0.0172 0.0000  plane waves:    3296
 k-point  90 :   0.0000 0.0000 0.0000  plane waves:    3294
 k-point  91 :   0.0000 0.0000 0.0000  plane waves:    3294
 k-point  92 :   0.0172 0.0000 0.0000  plane waves:    3296
 k-point  93 :   0.0345 0.0000 0.0000  plane waves:    3300
 k-point  94 :   0.0517 0.0000 0.0000  plane waves:    3292
 k-point  95 :   0.0690 0.0000 0.0000  plane waves:    3284
 k-point  96 :   0.0862 0.0000 0.0000  plane waves:    3296
 k-point  97 :   0.1034 0.0000 0.0000  plane waves:    3304
 k-point  98 :   0.1207 0.0000 0.0000  plane waves:    3296
 k-point  99 :   0.1379 0.0000 0.0000  plane waves:    3300
 k-point 100 :   0.1552 0.0000 0.0000  plane waves:    3306
 k-point 101 :   0.1724 0.0000 0.0000  plane waves:    3310
 k-point 102 :   0.1897 0.0000 0.0000  plane waves:    3316
 k-point 103 :   0.2069 0.0000 0.0000  plane waves:    3314
 k-point 104 :   0.2241 0.0000 0.0000  plane waves:    3328
 k-point 105 :   0.2414 0.0000 0.0000  plane waves:    3336
 k-point 106 :   0.2586 0.0000 0.0000  plane waves:    3344
 k-point 107 :   0.2759 0.0000 0.0000  plane waves:    3332
 k-point 108 :   0.2931 0.0000 0.0000  plane waves:    3336
 k-point 109 :   0.3103 0.0000 0.0000  plane waves:    3340
 k-point 110 :   0.3276 0.0000 0.0000  plane waves:    3358
 k-point 111 :   0.3448 0.0000 0.0000  plane waves:    3370
 k-point 112 :   0.3621 0.0000 0.0000  plane waves:    3360
 k-point 113 :   0.3793 0.0000 0.0000  plane waves:    3362
 k-point 114 :   0.3966 0.0000 0.0000  plane waves:    3356
 k-point 115 :   0.4138 0.0000 0.0000  plane waves:    3368
 k-point 116 :   0.4310 0.0000 0.0000  plane waves:    3362
 k-point 117 :   0.4483 0.0000 0.0000  plane waves:    3358
 k-point 118 :   0.4655 0.0000 0.0000  plane waves:    3352
 k-point 119 :   0.4828 0.0000 0.0000  plane waves:    3352
 k-point 120 :   0.5000 0.0000 0.0000  plane waves:    3348

 maximum and minimum number of plane-waves per node :      3376     3284

 maximum number of plane-waves:      3376
 maximum index in each direction: 
   IXMAX=    5   IYMAX=    5   IZMAX=   13
   IXMIN=   -6   IYMIN=   -6   IZMIN=  -14


 serial   3D FFT for wavefunctions
 parallel 3D FFT for charge:
    minimum data exchange during FFTs selected (reduces bandwidth)


 total amount of memory used by VASP MPI-rank0    83503. kBytes
=======================================================================

   base      :      30000. kBytes
   nonl-proj :      43469. kBytes
   fftplans  :        309. kBytes
   grid      :       2467. kBytes
   one-center:        162. kBytes
   wavefun   :       7096. kBytes
 
     INWAV:  cpu time      0.5055: real time      0.5095
 initial charge density was supplied:
 number of electron      28.0000011 magnetization       0.0000000      0.0000000      0.0000000
 keeping initial charge density in first step


--------------------------------------------------------------------------------------------------------


 Maximum index for augmentation-charges          277 (set IRDMAX)


--------------------------------------------------------------------------------------------------------


 First call to EWALD:  gamma=   0.340
 Maximum number of real-space cells 4x 4x 2
 Maximum number of reciprocal cells 2x 2x 5

    FEWALD:  cpu time      0.0015: real time      0.0015


--------------------------------------- Iteration      1(   1)  ---------------------------------------


    POTLOK:  cpu time      0.0114: real time      0.0119
    SETDIJ:  cpu time      0.0060: real time      0.0061
     EDDAV:  cpu time      4.5060: real time      4.5066
       DOS:  cpu time      0.0015: real time      0.0017
    --------------------------------------------
      LOOP:  cpu time      4.5249: real time      4.5264

 eigenvalue-minimisations  : 20720
 total energy-change (2. order) :-0.1160001E+02  (-0.7631061E+02)
 number of electron      28.0000011 magnetization       0.0000000      0.0000000      0.0000000
 augmentation part       28.0000011 magnetization       0.0000000      0.0000000      0.0000000

 Free energy of the ion-electron system (eV)
  ---------------------------------------------------
  alpha Z        PSCENC =        39.23162007
  Ewald energy   TEWEN  =     -1056.08405188
  -Hartree energ DENC   =       -90.56101404
  -exchange      EXHF   =         0.00000000
  -V(xc)+E(xc)   XCENC  =      -221.56224036
  PAW double counting   =      1450.57534118    -1175.57776585
  entropy T*S    EENTRO =        -0.00000030
  eigenvalues    EBANDS =       -30.62167254
  atomic energy  EATOM  =      1072.99977393
  Solvation  Ediel_sol  =         0.00000000
  ---------------------------------------------------
  free energy    TOTEN  =       -11.60000979 eV

  energy without entropy =      -11.60000949  energy(sigma->0) =      -11.60000964


--------------------------------------------------------------------------------------------------------




--------------------------------------- Iteration      1(   2)  ---------------------------------------


     EDDAV:  cpu time      2.4704: real time      2.4714
       DOS:  cpu time      0.0008: real time      0.0008
    --------------------------------------------
      LOOP:  cpu time      2.4711: real time      2.4721

 eigenvalue-minimisations  : 14280
 total energy-change (2. order) :-0.9391160E+00  (-0.9391160E+00)
 number of electron      28.0000011 magnetization       0.0000000      0.0000000      0.0000000
 augmentation part       28.0000011 magnetization       0.0000000      0.0000000      0.0000000

 Free energy of the ion-electron system (eV)
  ---------------------------------------------------
  alpha Z        PSCENC =        39.23162007
  Ewald energy   TEWEN  =     -1056.08405188
  -Hartree energ DENC   =       -90.56101404
  -exchange      EXHF   =         0.00000000
  -V(xc)+E(xc)   XCENC  =      -221.56224036
  PAW double counting   =      1450.57534118    -1175.57776585
  entropy T*S    EENTRO =        -0.00000006
  eigenvalues    EBANDS =       -31.56078880
  atomic energy  EATOM  =      1072.99977393
  Solvation  Ediel_sol  =         0.00000000
  ---------------------------------------------------
  free energy    TOTEN  =       -12.53912581 eV

  energy without entropy =      -12.53912575  energy(sigma->0) =      -12.53912578


--------------------------------------------------------------------------------------------------------




--------------------------------------- Iteration      1(   3)  ---------------------------------------


     EDDAV:  cpu time      7.1629: real time      7.1632
       DOS:  cpu time      0.0008: real time      0.0008
    --------------------------------------------
      LOOP:  cpu time      7.1637: real time      7.1640

 eigenvalue-minimisations  : 26544
 total energy-change (2. order) :-0.5053805E-02  (-0.5053804E-02)
 number of electron      28.0000011 magnetization       0.0000000      0.0000000      0.0000000
 augmentation part       28.0000011 magnetization       0.0000000      0.0000000      0.0000000

 Free energy of the ion-electron system (eV)
  ---------------------------------------------------
  alpha Z        PSCENC =        39.23162007
  Ewald energy   TEWEN  =     -1056.08405188
  -Hartree energ DENC   =       -90.56101404
  -exchange      EXHF   =         0.00000000
  -V(xc)+E(xc)   XCENC  =      -221.56224036
  PAW double counting   =      1450.57534118    -1175.57776585
  entropy T*S    EENTRO =        -0.00000006
  eigenvalues    EBANDS =       -31.56584260
  atomic energy  EATOM  =      1072.99977393
  Solvation  Ediel_sol  =         0.00000000
  ---------------------------------------------------
  free energy    TOTEN  =       -12.54417962 eV

  energy without entropy =      -12.54417956  energy(sigma->0) =      -12.54417959


--------------------------------------------------------------------------------------------------------




--------------------------------------- Iteration      1(   4)  ---------------------------------------


     EDDAV:  cpu time      3.4662: real time      3.4664
       DOS:  cpu time      0.0008: real time      0.0008
    --------------------------------------------
      LOOP:  cpu time      3.4670: real time      3.4671

 eigenvalue-minimisations  : 17248
 total energy-change (2. order) :-0.4744438E-06  (-0.4746469E-06)
 number of electron      28.0000011 magnetization       0.0000000      0.0000000      0.0000000
 augmentation part       28.0000011 magnetization       0.0000000      0.0000000      0.0000000

 Free energy of the ion-electron system (eV)
  ---------------------------------------------------
  alpha Z        PSCENC =        39.23162007
  Ewald energy   TEWEN  =     -1056.08405188
  -Hartree energ DENC   =       -90.56101404
  -exchange      EXHF   =         0.00000000
  -V(xc)+E(xc)   XCENC  =      -221.56224036
  PAW double counting   =      1450.57534118    -1175.57776585
  entropy T*S    EENTRO =        -0.00000006
  eigenvalues    EBANDS =       -31.56584308
  atomic energy  EATOM  =      1072.99977393
  Solvation  Ediel_sol  =         0.00000000
  ---------------------------------------------------
  free energy    TOTEN  =       -12.54418009 eV

  energy without entropy =      -12.54418003  energy(sigma->0) =      -12.54418006


--------------------------------------------------------------------------------------------------------




--------------------------------------- Iteration      1(   5)  ---------------------------------------


     EDDAV:  cpu time      7.0460: real time      7.0464
       DOS:  cpu time      0.0008: real time      0.0008



 total charge

# of ion       s       p       d       tot
------------------------------------------
    1        1.786   1.447   0.130   3.363
    2        1.786   1.447   0.130   3.363
    3        1.501   2.496   0.021   4.017
    4        1.507   2.366   0.019   3.892
    5        1.507   2.366   0.019   3.892
--------------------------------------------------
tot          8.086  10.121   0.320  18.527



 magnetization (x)

# of ion       s       p       d       tot
------------------------------------------
    1        0.002  -0.009   0.001  -0.007
    2       -0.002   0.009  -0.001   0.007
    3        0.000   0.000  -0.000   0.000
    4        0.003  -0.011  -0.000  -0.009
    5       -0.003   0.011   0.000   0.009
--------------------------------------------------
tot          0.000  -0.000   0.000   0.000



 magnetization (y)

# of ion       s       p       d       tot
------------------------------------------
    1       -0.001   0.003  -0.000   0.002
    2        0.001  -0.003   0.000  -0.002
    3        0.000   0.000  -0.000   0.000
    4       -0.001   0.004   0.000   0.003
    5        0.001  -0.004  -0.000  -0.003
--------------------------------------------------
tot          0.000  -0.000  -0.000  -0.000



 magnetization (z)

# of ion       s       p       d       tot
------------------------------------------
    1        0.000  -0.000   0.000  -0.000
    2       -0.000   0.000  -0.000   0.000
    3       -0.000  -0.000   0.000  -0.000
    4        0.000  -0.000   0.000  -0.000
    5       -0.000   0.000  -0.000   0.000
--------------------------------------------------
tot         -0.000  -0.000   0.000  -0.000
 
    --------------------------------------------
      LOOP:  cpu time      7.0619: real time      7.0623

 eigenvalue-minimisations  : 26264
 total energy-change (2. order) :-0.2402658E-08  (-0.2136108E-08)
 number of electron      28.0000011 magnetization       0.0000000      0.0000000      0.0000000
 augmentation part       28.0000011 magnetization       0.0000000      0.0000000      0.0000000

 Free energy of the ion-electron system (eV)
  ---------------------------------------------------
  alpha Z        PSCENC =        39.23162007
  Ewald energy   TEWEN  =     -1056.08405188
  -Hartree energ DENC   =       -90.56101404
  -exchange      EXHF   =         0.00000000
  -V(xc)+E(xc)   XCENC  =      -221.56224036
  PAW double counting   =      1450.57534118    -1175.57776585
  entropy T*S    EENTRO =        -0.00000006
  eigenvalues    EBANDS =       -31.56584308
  atomic energy  EATOM  =      1072.99977393
  Solvation  Ediel_sol  =         0.00000000
  ---------------------------------------------------
  free energy    TOTEN  =       -12.54418009 eV

  energy without entropy =      -12.54418004  energy(sigma->0) =      -12.54418006


--------------------------------------------------------------------------------------------------------




 average (electrostatic) potential at core
  the test charge radii are     1.4024  1.0808
  (the norm of the test charge is              1.0000)
       1 -62.8303       2 -62.8303       3 -53.8372       4 -53.7130       5 -53.7130
 
 
 
 E-fermi :   4.4080     XC(G=0):  -9.4770     alpha+bet : -9.5414

 Fermi energy:         4.4079647184

 k-point     1 :       0.0000    0.0000    0.0000
  band No.  band energies     occupation 
      1      -9.9081      1.00000
      2      -9.9081      1.00000
      3      -8.6776      1.00000
      4      -8.6776      1.00000
      5      -8.6262      1.00000
      6      -8.6262      1.00000
      7      -5.3173      1.00000
      8      -5.3173      1.00000
      9      -4.5508      1.00000
     10      -4.5508      1.00000
     11       1.7562      1.00000
     12       1.7562      1.00000
     13       1.9635      1.00000
     14       1.9635      1.00000
     15       2.5209      1.00000
     16       2.5209      1.00000
     17       2.6763      1.00000
     18       2.6763      1.00000
     19       2.6920      1.00000
     20       2.6920      1.00000
     21       3.0352      1.00000
     22       3.0352      1.00000
     23       3.3381      1.00000
     24       3.3381      1.00000
     25       3.7244      1.00000
     26       3.7244      1.00000
     27       4.1450      1.00000
     28       4.1450      1.00000
     29       4.5724      0.00000
     30       4.5724      0.00000
     31       5.6246      0.00000
     32       5.6246      0.00000
     33       5.9221      0.00000
     34       5.9221      0.00000
     35       6.3288      0.00000
     36       6.3288      0.00000
     37       7.5467      0.00000
     38       7.5467      0.00000
     39       7.9194      0.00000
     40       7.9194      0.00000
     41      10.1789      0.00000
     42      10.1789      0.00000
     43      10.7913      0.00000
     44      10.7913      0.00000
     45      11.2577      0.00000
     46      11.2577      0.00000
     47      11.4035      0.00000
     48      11.4035      0.00000
     49      11.7013      0.00000
     50      11.7013      0.00000
     51      12.0416      0.00000
     52      12.0416      0.00000
     53      12.0950      0.00000
     54      12.0950      0.00000
     55      12.7876      0.00000
     56      12.7944      0.00000

 k-point     2 :       0.0000    0.0000    0.0172
  band No.  band energies     occupation 
      1      -9.9078      1.00000
      2      -9.9078      1.00000
      3      -8.6937      1.00000
      4      -8.6937      1.00000
      5      -8.6099      1.00000
      6      -8.6099      1.00000
      7      -5.3198      1.00000
      8      -5.3198      1.00000
      9      -4.5486      1.00000
     10      -4.5486      1.00000
     11       1.7523      1.00000
     12       1.7523      1.00000
     13       1.9672      1.00000
     14       1.9672      1.00000
     15       2.5201      1.00000
     16       2.5201      1.00000
     17       2.6762      1.00000
     18       2.6762      1.00000
     19       2.6937      1.00000
     20       2.6937      1.00000
     21       3.0354      1.00000
     22       3.0354      1.00000
     23       3.3369      1.00000
     24       3.3369      1.00000
     25       3.7240      1.00000
     26       3.7240      1.00000
     27       4.1446      1.00000
     28       4.1446      1.00000
     29       4.5730      0.00000
     30       4.5730      0.00000
     31       5.6261      0.00000
     32       5.6261      0.00000
     33       5.9213      0.00000
     34       5.9213      0.00000
     35       6.3296      0.00000
     36       6.3296      0.00000
     37       7.5459      0.00000
     38       7.5459      0.00000
     39       7.9184      0.00000
     40       7.9184      0.00000
     41      10.1777      0.00000
     42      10.1777      0.00000
     43      10.7916      0.00000
     44      10.7916      0.00000
     45      11.2562      0.00000
     46      11.2562      0.00000
     47      11.4017      0.00000
     48      11.4017      0.00000
     49      11.7050      0.00000
     50      11.7050      0.00000
     51      12.0440      0.00000
     52      12.0440      0.00000
     53      12.0981      0.00000
     54      12.0981      0.00000
     55      12.7916      0.00000
     56      12.7916      0.00000

 k-point     3 :       0.0000    0.0000    0.0345
  band No.  band energies     occupation 
      1      -9.9069      1.00000
      2      -9.9069      1.00000
      3      -8.7225      1.00000
      4      -8.7225      1.00000
      5      -8.5805      1.00000
      6      -8.5805      1.00000
      7      -5.3272      1.00000
      8      -5.3272      1.00000
      9      -4.5421      1.00000
     10      -4.5421      1.00000
     11       1.7415      1.00000
     12       1.7415      1.00000
     13       1.9773      1.00000
     14       1.9773      1.00000
     15       2.5180      1.00000
     16       2.5180      1.00000
     17       2.6760      1.00000
     18       2.6760      1.00000
     19       2.6986      1.00000
     20       2.6986      1.00000
     21       3.0362      1.00000
     22       3.0362      1.00000
     23       3.3334      1.00000
     24       3.3334      1.00000
     25       3.7230      1.00000
     26       3.7230      1.00000
     27       4.1433      1.00000
     28       4.1433      1.00000
     29       4.5751      0.00000
     30       4.5751      0.00000
     31       5.6305      0.00000
     32       5.6305      0.00000
     33       5.9187      0.00000
     34       5.9187      0.00000
     35       6.3320      0.00000
     36       6.3320      0.00000
     37       7.5433      0.00000
     38       7.5433      0.00000
     39       7.9153      0.00000
     40       7.9153      0.00000
     41      10.1741      0.00000
     42      10.1741      0.00000
     43      10.7925      0.00000
     44      10.7925      0.00000
     45      11.2516      0.00000
     46      11.2516      0.00000
     47      11.3964      0.00000
     48      11.3964      0.00000
     49      11.7162      0.00000
     50      11.7162      0.00000
     51      12.0512      0.00000
     52      12.0512      0.00000
     53      12.1074      0.00000
     54      12.1074      0.00000
     55      12.7975      0.00000
     56      12.7975      0.00000

 k-point     4 :       0.0000    0.0000    0.0517
  band No.  band energies     occupation 
      1      -9.9056      1.00000
      2      -9.9056      1.00000
      3      -8.7534      1.00000
      4      -8.7534      1.00000
      5      -8.5485      1.00000
      6      -8.5485      1.00000
      7      -5.3392      1.00000
      8      -5.3392      1.00000
      9      -4.5317      1.00000
     10      -4.5317      1.00000
     11       1.7254      1.00000
     12       1.7254      1.00000
     13       1.9923      1.00000
     14       1.9923      1.00000
     15       2.5147      1.00000
     16       2.5147      1.00000
     17       2.6757      1.00000
     18       2.6757      1.00000
     19       2.7064      1.00000
     20       2.7064      1.00000
     21       3.0374      1.00000
     22       3.0374      1.00000
     23       3.3275      1.00000
     24       3.3275      1.00000
     25       3.7213      1.00000
     26       3.7213      1.00000
     27       4.1410      1.00000
     28       4.1410      1.00000
     29       4.5787      0.00000
     30       4.5787      0.00000
     31       5.6377      0.00000
     32       5.6377      0.00000
     33       5.9144      0.00000
     34       5.9144      0.00000
     35       6.3359      0.00000
     36       6.3359      0.00000
     37       7.5390      0.00000
     38       7.5390      0.00000
     39       7.9101      0.00000
     40       7.9101      0.00000
     41      10.1682      0.00000
     42      10.1682      0.00000
     43      10.7943      0.00000
     44      10.7943      0.00000
     45      11.2442      0.00000
     46      11.2442      0.00000
     47      11.3878      0.00000
     48      11.3878      0.00000
     49      11.7346      0.00000
     50      11.7346      0.00000
     51      12.0631      0.00000
     52      12.0631      0.00000
     53      12.1224      0.00000
     54      12.1224      0.00000
     55      12.8075      0.00000
     56      12.8075      0.00000

 k-point     5 :       0.0000    0.0000    0.0690
  band No.  band energies     occupation 
      1      -9.9036      1.00000
      2      -9.9036      1.00000
      3      -8.7846      1.00000
      4      -8.7846      1.00000
      5      -8.5157      1.00000
      6      -8.5157      1.00000
      7      -5.3554      1.00000
      8      -5.3554      1.00000
      9      -4.5176      1.00000
     10      -4.5176      1.00000
     11       1.7058      1.00000
     12       1.7058      1.00000
     13       2.0103      1.00000
     14       2.0103      1.00000
     15       2.5107      1.00000
     16       2.5107      1.00000
     17       2.6753      1.00000
     18       2.6753      1.00000
     19       2.7168      1.00000
     20       2.7168      1.00000
     21       3.0391      1.00000
     22       3.0391      1.00000
     23       3.3194      1.00000
     24       3.3194      1.00000
     25       3.7190      1.00000
     26       3.7190      1.00000
     27       4.1376      1.00000
     28       4.1376      1.00000
     29       4.5839      0.00000
     30       4.5839      0.00000
     31       5.6477      0.00000
     32       5.6477      0.00000
     33       5.9084      0.00000
     34       5.9084      0.00000
     35       6.3414      0.00000
     36       6.3414      0.00000
     37       7.5331      0.00000
     38       7.5331      0.00000
[...]
  0.000   0.000   0.000   0.000   0.000   0.000   0.000   0.000   0.000   0.000   0.000   0.000   0.000
 total augmentation occupancy for first ion, spin component:           2
  0.000   0.000   0.000   0.000   0.000   0.000   0.000   0.000   0.000   0.000   0.000   0.000   0.000
  0.000   0.000   0.000   0.000   0.000   0.000   0.000   0.000   0.000   0.000   0.000   0.000   0.000
  0.000   0.000   0.000   0.000   0.000   0.000   0.000   0.000   0.000   0.000   0.000   0.000   0.000
  0.000   0.000   0.000   0.000   0.000   0.000   0.000   0.000   0.000   0.000   0.000   0.000   0.000
  0.000   0.000   0.000   0.000   0.000   0.000   0.000   0.000   0.000   0.000   0.000   0.000   0.000
  0.000   0.000   0.000   0.000   0.000   0.000   0.000   0.000   0.000   0.000   0.000   0.000   0.000
  0.000   0.000   0.000   0.000   0.000   0.000   0.000   0.000   0.000   0.000   0.000   0.000   0.000
  0.000   0.000   0.000   0.000   0.000   0.000   0.000   0.000   0.000   0.000   0.000   0.000   0.000
  0.000   0.000   0.000   0.000   0.000   0.000   0.000   0.000   0.000   0.000   0.000   0.000   0.000
  0.000   0.000   0.000   0.000   0.000   0.000   0.000   0.000   0.000   0.000   0.000   0.000   0.000
  0.000   0.000   0.000   0.000   0.000   0.000   0.000   0.000   0.000   0.000   0.000   0.000   0.000
  0.000   0.000   0.000   0.000   0.000   0.000   0.000   0.000   0.000   0.000   0.000   0.000   0.000
  0.000   0.000   0.000   0.000   0.000   0.000   0.000   0.000   0.000   0.000   0.000   0.000   0.000
 total augmentation occupancy for first ion, spin component:           3
  0.000   0.000   0.000   0.000   0.000   0.000   0.000   0.000   0.000   0.000   0.000   0.000   0.000
  0.000   0.000   0.000   0.000   0.000   0.000   0.000   0.000   0.000   0.000   0.000   0.000   0.000
  0.000   0.000   0.000   0.000   0.000   0.000   0.000   0.000   0.000   0.000   0.000   0.000   0.000
  0.000   0.000   0.000   0.000   0.000   0.000   0.000   0.000   0.000   0.000   0.000   0.000   0.000
  0.000   0.000   0.000   0.000   0.000   0.000   0.000   0.000   0.000   0.000   0.000   0.000   0.000
  0.000   0.000   0.000   0.000   0.000   0.000   0.000   0.000   0.000   0.000   0.000   0.000   0.000
  0.000   0.000   0.000   0.000   0.000   0.000   0.000   0.000   0.000   0.000   0.000   0.000   0.000
  0.000   0.000   0.000   0.000   0.000   0.000   0.000   0.000   0.000   0.000   0.000   0.000   0.000
  0.000   0.000   0.000   0.000   0.000   0.000   0.000   0.000   0.000   0.000   0.000   0.000   0.000
  0.000   0.000   0.000   0.000   0.000   0.000   0.000   0.000   0.000   0.000   0.000   0.000   0.000
  0.000   0.000   0.000   0.000   0.000   0.000   0.000   0.000   0.000   0.000   0.000   0.000   0.000
  0.000   0.000   0.000   0.000   0.000   0.000   0.000   0.000   0.000   0.000   0.000   0.000   0.000
  0.000   0.000   0.000   0.000   0.000   0.000   0.000   0.000   0.000   0.000   0.000   0.000   0.000
 total augmentation occupancy for first ion, spin component:           4
  0.000   0.000   0.000   0.000   0.000   0.000   0.000   0.000   0.000   0.000   0.000   0.000   0.000
  0.000   0.000   0.000   0.000   0.000   0.000   0.000   0.000   0.000   0.000   0.000   0.000   0.000
  0.000   0.000   0.000   0.000   0.000   0.000   0.000   0.000   0.000   0.000   0.000   0.000   0.000
  0.000   0.000   0.000   0.000   0.000   0.000   0.000   0.000   0.000   0.000   0.000   0.000   0.000
  0.000   0.000   0.000   0.000   0.000   0.000   0.000   0.000   0.000   0.000   0.000   0.000   0.000
  0.000   0.000   0.000   0.000   0.000   0.000   0.000   0.000   0.000   0.000   0.000   0.000   0.000
  0.000   0.000   0.000   0.000   0.000   0.000   0.000   0.000   0.000   0.000   0.000   0.000   0.000
  0.000   0.000   0.000   0.000   0.000   0.000   0.000   0.000   0.000   0.000   0.000   0.000   0.000
  0.000   0.000   0.000   0.000   0.000   0.000   0.000   0.000   0.000   0.000   0.000   0.000   0.000
  0.000   0.000   0.000   0.000   0.000   0.000   0.000   0.000   0.000   0.000   0.000   0.000   0.000
  0.000   0.000   0.000   0.000   0.000   0.000   0.000   0.000   0.000   0.000   0.000   0.000   0.000
  0.000   0.000   0.000   0.000   0.000   0.000   0.000   0.000   0.000   0.000   0.000   0.000   0.000
  0.000   0.000   0.000   0.000   0.000   0.000   0.000   0.000   0.000   0.000   0.000   0.000   0.000


------------------------ aborting loop because EDIFF is reached ----------------------------------------





 total charge

# of ion       s       p       d       tot
------------------------------------------
    1        1.786   1.447   0.130   3.363
    2        1.786   1.447   0.130   3.363
    3        1.501   2.496   0.021   4.017
    4        1.507   2.366   0.019   3.892
    5        1.507   2.366   0.019   3.892
--------------------------------------------------
tot          8.086  10.121   0.320  18.527



 magnetization (x)

# of ion       s       p       d       tot
------------------------------------------
    1        0.000   0.000   0.000   0.000
    2        0.000   0.000   0.000   0.000
    3        0.000   0.000   0.000   0.000
    4        0.000   0.000  -0.000   0.000
    5        0.000   0.000  -0.000   0.000
--------------------------------------------------
tot          0.000   0.000  -0.000   0.000



 magnetization (y)

# of ion       s       p       d       tot
------------------------------------------
    1       -0.000  -0.000   0.000  -0.000
    2        0.000  -0.000   0.000  -0.000
    3       -0.000  -0.000   0.000  -0.000
    4        0.000   0.000   0.000   0.000
    5        0.000   0.000   0.000   0.000
--------------------------------------------------
tot          0.000  -0.000   0.000  -0.000



 magnetization (z)

# of ion       s       p       d       tot
------------------------------------------
    1        0.000   0.000   0.000   0.000
    2        0.000   0.000   0.000   0.000
    3        0.000   0.000   0.000   0.000
    4        0.000   0.000   0.000   0.000
    5        0.000   0.000   0.000   0.000
--------------------------------------------------
tot          0.000   0.000   0.000   0.000
 
    CHARGE:  cpu time      0.0360: real time      0.0363
    FORLOC:  cpu time      0.0003: real time      0.0003
    FORNL :  cpu time      0.1062: real time      0.1062
    STRESS:  cpu time      0.7479: real time      0.7482
    FORCOR:  cpu time      0.0072: real time      0.0072
    FORHAR:  cpu time      0.0011: real time      0.0013
    OFIELD:  cpu time      0.0001: real time      0.0001

  FORCE on cell =-STRESS in cart. coord.  units (eV):
  Direction    XX          YY          ZZ          XY          YZ          ZX
  --------------------------------------------------------------------------------------
  Alpha Z    39.23162    39.23162    39.23162
  Ewald    -359.66867  -359.66878  -336.74692     0.00000     0.00010    -0.00000
  Hartree    32.54546    32.54545    38.20701     0.00000     0.00002     0.00000
  E(xc)    -110.99201  -110.99202  -110.91053     0.00000     0.00000     0.00000
  Local     -98.39151   -98.39074  -120.03935    -0.00000     0.00008     0.00000
  n-local   274.75972   275.95124   275.47849     0.16457     0.34976    -0.34839
  augment   -66.25546   -66.25564   -65.91176     0.00000    -0.00010     0.00000
  Kinetic   319.41065   309.50823   285.84894    -2.66044     0.08702     0.08914
  Fock        0.00000     0.00000     0.00000     0.00000     0.00000     0.00000
  -------------------------------------------------------------------------------------
  Total      26.28457    26.28458     5.15752     0.00000    -0.00000    -0.00000
  in kB     297.47329   297.47344    58.36983     0.00000    -0.00001    -0.00000
  external pressure =      217.77 kB  Pullay stress =        0.00 kB


 VOLUME and BASIS-vectors are now :
 -----------------------------------------------------------------------------
  energy-cutoff  :      300.00
  volume of cell :      141.57
      direct lattice vectors                 reciprocal lattice vectors
    -2.069000000 -3.583614000  0.000000000    -0.241662639 -0.139523955  0.034916185
     2.069000000 -3.583614000  0.000000000     0.241662639 -0.139523955  0.034916185
     0.000000000  2.389075000  9.546667000     0.000000000  0.000000000  0.104748600

  length of vectors
     4.138000761  4.138000761  9.841063467     0.281223941  0.281223941  0.104748600


 FORCES acting on ions
    electron-ion (+dipol)            ewald-force                    non-local-force                 convergence-correction
 -----------------------------------------------------------------------------------------------
   -.107E-13 0.105E-04 -.597E-01   0.279E-14 -.170E-05 0.237E+01   0.763E-17 -.573E-07 0.547E+00   0.195E-13 0.264E-07 -.189E+01
   -.121E-12 -.105E-04 0.597E-01   -.633E-14 0.170E-05 -.237E+01   0.555E-17 0.573E-07 -.547E+00   0.186E-13 -.264E-07 0.189E+01
   0.114E-14 0.718E-14 0.225E-13   0.357E-14 0.914E-15 0.711E-14   0.118E-25 0.169E-25 -.860E-26   -.325E-13 0.773E-13 -.330E-12
   0.143E-13 -.219E-05 0.966E+01   0.118E-15 -.414E-05 -.122E+02   -.191E-18 0.781E-08 -.745E-01   -.453E-13 0.106E-06 0.318E+01
   -.389E-14 0.219E-05 -.966E+01   0.301E-14 0.414E-05 0.122E+02   -.566E-17 -.781E-08 0.745E-01   -.574E-13 -.106E-06 -.318E+01
 -----------------------------------------------------------------------------------------------
   -.121E-12 -.953E-13 0.869E-13   0.316E-14 0.368E-14 0.178E-13   0.734E-17 0.248E-16 0.000E+00   -.971E-13 0.213E-12 0.172E-12
 
 
 POSITION                                       TOTAL-FORCE (eV/Angst)
 -----------------------------------------------------------------------------------
      0.00000     -1.19454      6.65403        -0.000000     -0.000000      0.966650
      0.00000     -3.58361      2.89264         0.000000      0.000000     -0.966650
      0.00000      1.19454      4.77333         0.000000      0.000000     -0.000000
      0.00000     -1.19454      1.12651        -0.000000     -0.000000      0.546364
      0.00000     -3.58361      8.42016         0.000000      0.000000     -0.546364
 -----------------------------------------------------------------------------------
    total drift:                               -0.000000      0.000000      0.000000


--------------------------------------------------------------------------------------------------------



  FREE ENERGIE OF THE ION-ELECTRON SYSTEM (eV)
  ---------------------------------------------------
  free  energy   TOTEN  =       -12.54418009 eV

  energy  without entropy=      -12.54418004  energy(sigma->0) =      -12.54418006
 


--------------------------------------------------------------------------------------------------------


    POTLOK:  cpu time      0.0161: real time      0.0162


--------------------------------------------------------------------------------------------------------


 writing wavefunctions
     LOOP+:  cpu time     26.6166: real time     26.8900
    4ORBIT:  cpu time      0.0000: real time      0.0000

 Spin-Orbit-Coupling matrix elements

 Ion:    1  E_soc:     -1.1138653
 l=   1
     0.0000000    -0.1875180    -0.1767511
    -0.1875180     0.0000000    -0.1875180
    -0.1767511    -0.1875180     0.0000000
 l=   2
     0.0000000    -0.0003729     0.0000000    -0.0003729    -0.0017306
    -0.0003729     0.0000000    -0.0008369    -0.0002495    -0.0003729
     0.0000000    -0.0008369     0.0000000    -0.0008369     0.0000000
    -0.0003729    -0.0002495    -0.0008369     0.0000000    -0.0003729
    -0.0017306    -0.0003729     0.0000000    -0.0003729     0.0000000
 l=   3
     0.0000000     0.0000000     0.0000000     0.0000000     0.0000000     0.0000000     0.0000000
     0.0000000     0.0000000     0.0000000     0.0000000     0.0000000     0.0000000     0.0000000
     0.0000000     0.0000000     0.0000000     0.0000000     0.0000000     0.0000000     0.0000000
     0.0000000     0.0000000     0.0000000     0.0000000     0.0000000     0.0000000     0.0000000
     0.0000000     0.0000000     0.0000000     0.0000000     0.0000000     0.0000000     0.0000000
     0.0000000     0.0000000     0.0000000     0.0000000     0.0000000     0.0000000     0.0000000
     0.0000000     0.0000000     0.0000000     0.0000000     0.0000000     0.0000000     0.0000000

 Ion:    2  E_soc:     -1.1138653
 l=   1
     0.0000000    -0.1875180    -0.1767511
    -0.1875180     0.0000000    -0.1875180
    -0.1767511    -0.1875180     0.0000000
 l=   2
     0.0000000    -0.0003729     0.0000000    -0.0003729    -0.0017306
    -0.0003729     0.0000000    -0.0008369    -0.0002495    -0.0003729
     0.0000000    -0.0008369     0.0000000    -0.0008369     0.0000000
    -0.0003729    -0.0002495    -0.0008369     0.0000000    -0.0003729
    -0.0017306    -0.0003729     0.0000000    -0.0003729     0.0000000
 l=   3
     0.0000000     0.0000000     0.0000000     0.0000000     0.0000000     0.0000000     0.0000000
     0.0000000     0.0000000     0.0000000     0.0000000     0.0000000     0.0000000     0.0000000
     0.0000000     0.0000000     0.0000000     0.0000000     0.0000000     0.0000000     0.0000000
     0.0000000     0.0000000     0.0000000     0.0000000     0.0000000     0.0000000     0.0000000
     0.0000000     0.0000000     0.0000000     0.0000000     0.0000000     0.0000000     0.0000000
     0.0000000     0.0000000     0.0000000     0.0000000     0.0000000     0.0000000     0.0000000
     0.0000000     0.0000000     0.0000000     0.0000000     0.0000000     0.0000000     0.0000000

 Ion:    3  E_soc:     -0.0177262
 l=   1
     0.0000000    -0.0028795    -0.0032444
    -0.0028795     0.0000000    -0.0028795
    -0.0032444    -0.0028795     0.0000000
 l=   2
     0.0000000     0.0000029     0.0000000     0.0000029     0.0000502
     0.0000029     0.0000000     0.0000448    -0.0000113     0.0000029
     0.0000000     0.0000448     0.0000000     0.0000448     0.0000000
     0.0000029    -0.0000113     0.0000448     0.0000000     0.0000029
     0.0000502     0.0000029     0.0000000     0.0000029     0.0000000
 l=   3
     0.0000000     0.0000000     0.0000000     0.0000000     0.0000000     0.0000000     0.0000000
     0.0000000     0.0000000     0.0000000     0.0000000     0.0000000     0.0000000     0.0000000
     0.0000000     0.0000000     0.0000000     0.0000000     0.0000000     0.0000000     0.0000000
     0.0000000     0.0000000     0.0000000     0.0000000     0.0000000     0.0000000     0.0000000
     0.0000000     0.0000000     0.0000000     0.0000000     0.0000000     0.0000000     0.0000000
     0.0000000     0.0000000     0.0000000     0.0000000     0.0000000     0.0000000     0.0000000
     0.0000000     0.0000000     0.0000000     0.0000000     0.0000000     0.0000000     0.0000000

 Ion:    4  E_soc:     -0.0230091
 l=   1
     0.0000000    -0.0045298    -0.0024997
    -0.0045298     0.0000000    -0.0045298
    -0.0024997    -0.0045298     0.0000000
 l=   2
     0.0000000     0.0000010     0.0000000     0.0000010     0.0000206
     0.0000010     0.0000000     0.0000155    -0.0000005     0.0000010
     0.0000000     0.0000155     0.0000000     0.0000155     0.0000000
     0.0000010    -0.0000005     0.0000155     0.0000000     0.0000010
     0.0000206     0.0000010     0.0000000     0.0000010     0.0000000
 l=   3
     0.0000000     0.0000000     0.0000000     0.0000000     0.0000000     0.0000000     0.0000000
     0.0000000     0.0000000     0.0000000     0.0000000     0.0000000     0.0000000     0.0000000
     0.0000000     0.0000000     0.0000000     0.0000000     0.0000000     0.0000000     0.0000000
     0.0000000     0.0000000     0.0000000     0.0000000     0.0000000     0.0000000     0.0000000
     0.0000000     0.0000000     0.0000000     0.0000000     0.0000000     0.0000000     0.0000000
     0.0000000     0.0000000     0.0000000     0.0000000     0.0000000     0.0000000     0.0000000
     0.0000000     0.0000000     0.0000000     0.0000000     0.0000000     0.0000000     0.0000000

 Ion:    5  E_soc:     -0.0230091
 l=   1
     0.0000000    -0.0045298    -0.0024997
    -0.0045298     0.0000000    -0.0045298
    -0.0024997    -0.0045298     0.0000000
 l=   2
     0.0000000     0.0000010     0.0000000     0.0000010     0.0000206
     0.0000010     0.0000000     0.0000155    -0.0000005     0.0000010
     0.0000000     0.0000155     0.0000000     0.0000155     0.0000000
     0.0000010    -0.0000005     0.0000155     0.0000000     0.0000010
     0.0000206     0.0000010     0.0000000     0.0000010     0.0000000
 l=   3
     0.0000000     0.0000000     0.0000000     0.0000000     0.0000000     0.0000000     0.0000000
     0.0000000     0.0000000     0.0000000     0.0000000     0.0000000     0.0000000     0.0000000
     0.0000000     0.0000000     0.0000000     0.0000000     0.0000000     0.0000000     0.0000000
     0.0000000     0.0000000     0.0000000     0.0000000     0.0000000     0.0000000     0.0000000
     0.0000000     0.0000000     0.0000000     0.0000000     0.0000000     0.0000000     0.0000000
     0.0000000     0.0000000     0.0000000     0.0000000     0.0000000     0.0000000     0.0000000
     0.0000000     0.0000000     0.0000000     0.0000000     0.0000000     0.0000000     0.0000000



 total charge

# of ion       s       p       d       tot
------------------------------------------
    1        1.786   1.447   0.130   3.363
    2        1.786   1.447   0.130   3.363
    3        1.501   2.496   0.021   4.017
    4        1.507   2.366   0.019   3.892
    5        1.507   2.366   0.019   3.892
--------------------------------------------------
tot          8.086  10.121   0.320  18.527



 magnetization (x)

# of ion       s       p       d       tot
------------------------------------------
    1        0.000   0.000   0.000   0.000
    2        0.000   0.000   0.000   0.000
    3        0.000   0.000   0.000   0.000
    4        0.000   0.000  -0.000   0.000
    5        0.000   0.000  -0.000   0.000
--------------------------------------------------
tot          0.000   0.000  -0.000   0.000



 magnetization (y)

# of ion       s       p       d       tot
------------------------------------------
    1       -0.000  -0.000   0.000  -0.000
    2        0.000  -0.000   0.000  -0.000
    3       -0.000  -0.000   0.000  -0.000
    4        0.000   0.000   0.000   0.000
    5        0.000   0.000   0.000   0.000
--------------------------------------------------
tot          0.000  -0.000   0.000  -0.000



 magnetization (z)

# of ion       s       p       d       tot
------------------------------------------
    1        0.000   0.000   0.000   0.000
    2        0.000   0.000   0.000   0.000
    3        0.000   0.000   0.000   0.000
    4        0.000   0.000   0.000   0.000
    5        0.000   0.000   0.000   0.000
--------------------------------------------------
tot          0.000   0.000   0.000   0.000
 

 total amount of memory used by VASP MPI-rank0    83503. kBytes
=======================================================================

   base      :      30000. kBytes
   nonl-proj :      43469. kBytes
   fftplans  :        309. kBytes
   grid      :       2467. kBytes
   one-center:        162. kBytes
   wavefun   :       7096. kBytes
 
  
  
 General timing and accounting informations for this job:
 ========================================================
  
                  Total CPU time used (sec):       30.056
                            User time (sec):       29.020
                          System time (sec):        1.035
                         Elapsed time (sec):       31.160
  
                   Maximum memory used (kb):      328020.
                   Average memory used (kb):          N/A
  
                          Minor page faults:        51777
                          Major page faults:            0
                 Voluntary context switches:         2558
