 vasp.5.4.4.18Apr17-6-g9f103f2a35 (build Dec 29 2022 11:55:37) complex          
  
 executed on             LinuxIFC date 2024.05.24  18:47:33
 running on   20 total cores
 distrk:  each k-point on   20 cores,    1 groups
 distr:  one band on NCORES_PER_BAND=   1 cores,   20 groups


--------------------------------------------------------------------------------------------------------


 INCAR:
 POTCAR:    PAW_PBE Cu 22Jun2005                  

 ----------------------------------------------------------------------------- 
|                                                                             |
|           W    W    AA    RRRRR   N    N  II  N    N   GGGG   !!!           |
|           W    W   A  A   R    R  NN   N  II  NN   N  G    G  !!!           |
|           W    W  A    A  R    R  N N  N  II  N N  N  G       !!!           |
|           W WW W  AAAAAA  RRRRR   N  N N  II  N  N N  G  GGG   !            |
|           WW  WW  A    A  R   R   N   NN  II  N   NN  G    G                |
|           W    W  A    A  R    R  N    N  II  N    N   GGGG   !!!           |
|                                                                             |
|      For optimal performance we recommend to set                            |
|        NCORE= 4 - approx SQRT( number of cores)                             |
|      NCORE specifies how many cores store one orbital (NPAR=cpu/NCORE).     |
|      This setting can  greatly improve the performance of VASP for DFT.     |
|      The default,   NCORE=1            might be grossly inefficient         |
|      on modern multi-core architectures or massively parallel machines.     |
|      Do your own testing !!!!                                               |
|      Unfortunately you need to use the default for GW and RPA calculations. |
|      (for HF NCORE is supported but not extensively tested yet)             |
|                                                                             |
 ----------------------------------------------------------------------------- 

 POTCAR:    PAW_PBE Cu 22Jun2005                  
   SHA256 =  0e71e558f37a4e8407882b4609ceaae59938afaad9ced71dfe8490308a0ab630 Cu
   COPYR  = (c) Copyright 22Jun2005 Georg Kresse                                
   COPYR  = This file is part of the software VASP. Any use, copying, and all ot
   COPYR  = If you do not have a valid VASP license, you may not use, copy or di
   VRHFIN =Cu: d10 p1                                                           
   LEXCH  = PE                                                                  
   EATOM  =  1390.9808 eV,  102.2342 Ry                                         
                                                                                
   TITEL  = PAW_PBE Cu 22Jun2005                                                
   LULTRA =        F    use ultrasoft PP ?                                      
   IUNSCR =        1    unscreen: 0-lin 1-nonlin 2-no                           
   RPACOR =    2.000    partial core radius                                     
   POMASS =   63.546; ZVAL   =   11.000    mass and valenz                      
   RCORE  =    2.300    outmost cutoff radius                                   
   RWIGS  =    2.200; RWIGS  =    1.164    wigner-seitz radius (au A)           
   ENMAX  =  295.446; ENMIN  =  221.585 eV                                      
   ICORE  =        3    local potential                                         
   LCOR   =        T    correct aug charges                                     
   LPAW   =        T    paw PP                                                  
   EAUG   =  586.980                                                            
   DEXC   =    0.000                                                            
   RMAX   =    2.344    core radius for proj-oper                               
   RAUG   =    1.300    factor for augmentation sphere                          
   RDEP   =    2.302    radius for radial grids                                 
   RDEPT  =    1.771    core radius for aug-charge                              
                                                                                
   Atomic configuration                                                         
    9 entries                                                                   
     n  l   j            E        occ.                                          
     1  0  0.50     -8850.2468   2.0000                                         
     2  0  0.50     -1062.3498   2.0000                                         
     2  1  1.50      -916.8226   6.0000                                         
     3  0  0.50      -114.6929   2.0000                                         
     3  1  1.50       -72.1325   6.0000                                         
     3  2  2.50        -5.0394  10.0000                                         
     4  0  0.50        -4.6097   1.0000                                         
     4  1  0.50        -4.0817   0.0000                                         
     4  3  2.50        -1.3606   0.0000                                         
   Description                                                                  
     l       E           TYP  RCUT    TYP  RCUT                                 
     2     -5.0393973     23  2.200                                             
     2     10.8846608     23  2.200                                             
     0     -4.6097109     23  2.200                                             
     0      8.2520465     23  2.200                                             
     1     -2.7211652     23  2.200                                             
     1     21.7055443     23  2.200                                             
     3      2.7211652     23  2.300                                             
  local pseudopotential read in
  partial core-charges read in
  partial kinetic energy density read in
  atomic valenz-charges read in
  non local Contribution for L=           2  read in
    real space projection operators read in
  non local Contribution for L=           2  read in
    real space projection operators read in
  non local Contribution for L=           0  read in
    real space projection operators read in
  non local Contribution for L=           0  read in
    real space projection operators read in
  non local Contribution for L=           1  read in
    real space projection operators read in
  non local Contribution for L=           1  read in
    real space projection operators read in
    PAW grid and wavefunctions read in
 
   number of l-projection  operators is LMAX  =           6
   number of lm-projection operators is LMMAX =          18
 
  PAW_PBE Cu 22Jun2005                  :
 energy of atom  1       EATOM=-1390.9808
 kinetic energy error for atom=    0.0422 (will be added to EATOM!!)
 
 
 POSCAR: Cu  spacegroup                          
  positions in direct lattice
  velocities in cartesian coordinates
  No initial velocities read in
 exchange correlation table for  LEXCH =        8
   RHO(1)=    0.500       N(1)  =     2000
   RHO(2)=  100.500       N(2)  =     4000
 


--------------------------------------------------------------------------------------------------------


 ion  position               nearest neighbor table
   1  0.000  0.000  0.000-
 
  LATTYP: Found a face centered cubic cell.
 ALAT       =     3.6150000000
  
  Lattice vectors:
  
 A1 = (   0.0000000000,   1.8075000000,   1.8075000000)
 A2 = (   1.8075000000,   0.0000000000,   1.8075000000)
 A3 = (   1.8075000000,   1.8075000000,   0.0000000000)


Analysis of symmetry for initial positions (statically):
=====================================================================
 Subroutine PRICEL returns:
 Original cell was already a primitive cell.
 

 Routine SETGRP: Setting up the symmetry group for a 
 face centered cubic supercell.


 Subroutine GETGRP returns: Found 48 space group operations
 (whereof 48 operations were pure point group operations)
 out of a pool of 48 trial point group operations.


The static configuration has the point symmetry O_h .


Analysis of symmetry for dynamics (positions and initial velocities):
=====================================================================
 Subroutine PRICEL returns:
 Original cell was already a primitive cell.
 

 Routine SETGRP: Setting up the symmetry group for a 
 face centered cubic supercell.


 Subroutine GETGRP returns: Found 48 space group operations
 (whereof 48 operations were pure point group operations)
 out of a pool of 48 trial point group operations.


The dynamic configuration has the point symmetry O_h .


 Subroutine INISYM returns: Found 48 space group operations
 (whereof 48 operations are pure point group operations),
 and found     1 'primitive' translations

 
 
 KPOINTS: K-Path Generated by VASPKIT.            
  interpolating k-points between supplied coordinates
  k-points in reciprocal lattice
Space group operators:
 irot       det(A)        alpha          n_x          n_y          n_z        tau_x        tau_y        tau_z
    1     1.000000     0.000000     1.000000     0.000000     0.000000     0.000000     0.000000     0.000000
    2    -1.000000     0.000000     1.000000     0.000000     0.000000     0.000000     0.000000     0.000000
    3     1.000000   120.000000    -0.577350    -0.577350    -0.577350     0.000000     0.000000     0.000000
    4    -1.000000   120.000000    -0.577350    -0.577350    -0.577350     0.000000     0.000000     0.000000
    5     1.000000   120.000000     0.577350     0.577350     0.577350     0.000000     0.000000     0.000000
    6    -1.000000   120.000000     0.577350     0.577350     0.577350     0.000000     0.000000     0.000000
    7     1.000000    90.000000     0.000000     0.000000    -1.000000     0.000000     0.000000     0.000000
    8    -1.000000    90.000000     0.000000     0.000000    -1.000000     0.000000     0.000000     0.000000
    9     1.000000   180.000000     0.000000     0.707107     0.707107     0.000000     0.000000     0.000000
   10    -1.000000   180.000000     0.000000     0.707107     0.707107     0.000000     0.000000     0.000000
   11     1.000000    90.000000     0.000000     1.000000     0.000000     0.000000     0.000000     0.000000
   12    -1.000000    90.000000     0.000000     1.000000     0.000000     0.000000     0.000000     0.000000
   13     1.000000   180.000000     0.000000     0.000000     1.000000     0.000000     0.000000     0.000000
   14    -1.000000   180.000000     0.000000     0.000000     1.000000     0.000000     0.000000     0.000000
   15     1.000000   120.000000    -0.577350     0.577350     0.577350     0.000000     0.000000     0.000000
   16    -1.000000   120.000000    -0.577350     0.577350     0.577350     0.000000     0.000000     0.000000
   17     1.000000   120.000000    -0.577350     0.577350    -0.577350     0.000000     0.000000     0.000000
   18    -1.000000   120.000000    -0.577350     0.577350    -0.577350     0.000000     0.000000     0.000000
   19     1.000000    90.000000     0.000000     0.000000     1.000000     0.000000     0.000000     0.000000
   20    -1.000000    90.000000     0.000000     0.000000     1.000000     0.000000     0.000000     0.000000
   21     1.000000    90.000000    -1.000000     0.000000     0.000000     0.000000     0.000000     0.000000
   22    -1.000000    90.000000    -1.000000     0.000000     0.000000     0.000000     0.000000     0.000000
   23     1.000000   180.000000     0.707107     0.000000     0.707107     0.000000     0.000000     0.000000
   24    -1.000000   180.000000     0.707107     0.000000     0.707107     0.000000     0.000000     0.000000
   25     1.000000   120.000000     0.577350    -0.577350     0.577350     0.000000     0.000000     0.000000
   26    -1.000000   120.000000     0.577350    -0.577350     0.577350     0.000000     0.000000     0.000000
   27     1.000000   120.000000    -0.577350    -0.577350     0.577350     0.000000     0.000000     0.000000
   28    -1.000000   120.000000    -0.577350    -0.577350     0.577350     0.000000     0.000000     0.000000
   29     1.000000   180.000000     1.000000     0.000000     0.000000     0.000000     0.000000     0.000000
   30    -1.000000   180.000000     1.000000     0.000000     0.000000     0.000000     0.000000     0.000000
   31     1.000000    90.000000     0.000000    -1.000000     0.000000     0.000000     0.000000     0.000000
   32    -1.000000    90.000000     0.000000    -1.000000     0.000000     0.000000     0.000000     0.000000
   33     1.000000   180.000000     0.707107     0.707107     0.000000     0.000000     0.000000     0.000000
   34    -1.000000   180.000000     0.707107     0.707107     0.000000     0.000000     0.000000     0.000000
   35     1.000000    90.000000     1.000000     0.000000     0.000000     0.000000     0.000000     0.000000
   36    -1.000000    90.000000     1.000000     0.000000     0.000000     0.000000     0.000000     0.000000
   37     1.000000   120.000000     0.577350    -0.577350    -0.577350     0.000000     0.000000     0.000000
   38    -1.000000   120.000000     0.577350    -0.577350    -0.577350     0.000000     0.000000     0.000000
   39     1.000000   180.000000     0.000000     1.000000     0.000000     0.000000     0.000000     0.000000
   40    -1.000000   180.000000     0.000000     1.000000     0.000000     0.000000     0.000000     0.000000
   41     1.000000   120.000000     0.577350     0.577350    -0.577350     0.000000     0.000000     0.000000
   42    -1.000000   120.000000     0.577350     0.577350    -0.577350     0.000000     0.000000     0.000000
   43     1.000000   180.000000     0.000000    -0.707107     0.707107     0.000000     0.000000     0.000000
   44    -1.000000   180.000000     0.000000    -0.707107     0.707107     0.000000     0.000000     0.000000
   45     1.000000   180.000000     0.707107    -0.707107     0.000000     0.000000     0.000000     0.000000
   46    -1.000000   180.000000     0.707107    -0.707107     0.000000     0.000000     0.000000     0.000000
   47     1.000000   180.000000     0.707107     0.000000    -0.707107     0.000000     0.000000     0.000000
   48    -1.000000   180.000000     0.707107     0.000000    -0.707107     0.000000     0.000000     0.000000


--------------------------------------------------------------------------------------------------------




 Dimension of arrays:
   k-points           NKPTS =    100   k-points in BZ     NKDIM =    100   number of bands    NBANDS=     20
   number of dos      NEDOS =    301   number of ions     NIONS =      1
   non local maximal  LDIM  =      6   non local SUM 2l+1 LMDIM =     18
   total plane-waves  NPLWV =   2744
   max r-space proj   IRMAX =      1   max aug-charges    IRDMAX=   6929
   dimension x,y,z NGX =    14 NGY =   14 NGZ =   14
   dimension x,y,z NGXF=    28 NGYF=   28 NGZF=   28
   support grid    NGXF=    28 NGYF=   28 NGZF=   28
   ions per type =               1
   NGX,Y,Z   is equivalent  to a cutoff of   9.11,  9.11,  9.11 a.u.
   NGXF,Y,Z  is equivalent  to a cutoff of  18.21, 18.21, 18.21 a.u.

 SYSTEM =  Cu metal                                
 POSCAR =  Cu  spacegroup                          

 Startparameter for this run:
   NWRITE =      2    write-flag & timer
   PREC   = accura    normal or accurate (medium, high low for compatibility)
   ISTART =      1    job   : 0-new  1-cont  2-samecut
   ICHARG =     11    charge: 1-file 2-atom 10-const
   ISPIN  =      1    spin polarized calculation?
   LNONCOLLINEAR =      F non collinear calculations
   LSORBIT =      F    spin-orbit coupling
   INIWAV =      1    electr: 0-lowe 1-rand  2-diag
   LASPH  =      F    aspherical Exc in radial PAW
   METAGGA=      F    non-selfconsistent MetaGGA calc.

 Electronic Relaxation 1
   ENCUT  =  300.0 eV  22.05 Ry    4.70 a.u.   3.61  3.61  3.61*2*pi/ulx,y,z
   ENINI  =  300.0     initial cutoff
   ENAUG  =  587.0 eV  augmentation charge cutoff
   NELM   =     60;   NELMIN=  2; NELMDL=  0     # of ELM steps 
   EDIFF  = 0.1E-07   stopping-criterion for ELM
   LREAL  =      F    real-space projection
   NLSPLINE    = F    spline interpolate recip. space projectors
   LCOMPAT=      F    compatible to vasp.4.4
   GGA_COMPAT  = T    GGA compatible to vasp.4.4-vasp.4.6
   LMAXPAW     = -100 max onsite density
   LMAXMIX     =    2 max onsite mixed and CHGCAR
   VOSKOWN=      0    Vosko Wilk Nusair interpolation
   ROPT   =    0.00000
 Ionic relaxation
   EDIFFG = 0.1E-06   stopping-criterion for IOM
   NSW    =      0    number of steps for IOM
   NBLOCK =      1;   KBLOCK =      1    inner block; outer block 
   IBRION =     -1    ionic relax: 0-MD 1-quasi-New 2-CG
   NFREE  =      0    steps in history (QN), initial steepest desc. (CG)
   ISIF   =      2    stress and relaxation
   IWAVPR =     10    prediction:  0-non 1-charg 2-wave 3-comb
   ISYM   =      2    0-nonsym 1-usesym 2-fastsym
   LCORR  =      T    Harris-Foulkes like correction to forces

   POTIM  = 0.5000    time-step for ionic-motion
   TEIN   =    0.0    initial temperature
   TEBEG  =    0.0;   TEEND  =   0.0 temperature during run
   SMASS  =  -3.00    Nose mass-parameter (am)
   estimated Nose-frequenzy (Omega)   =  0.10E-29 period in steps =****** mass=  -0.149E-27a.u.
   SCALEE = 1.0000    scale energy and forces
   NPACO  =    256;   APACO  = 16.0  distance and # of slots for P.C.
   PSTRESS=    0.0 pullay stress

  Mass of Ions in am
   POMASS =  63.55
  Ionic Valenz
   ZVAL   =  11.00
  Atomic Wigner-Seitz radii
   RWIGS  =  -1.00
  virtual crystal weights 
   VCA    =   1.00
   NELECT =      11.0000    total number of electrons
   NUPDOWN=      -1.0000    fix difference up-down

 DOS related values:
   EMIN   =  10.00;   EMAX   =-10.00  energy-range for DOS
   EFERMI =   0.00
   ISMEAR =     0;   SIGMA  =   0.05  broadening in eV -4-tet -1-fermi 0-gaus

 Electronic relaxation 2 (details)
   IALGO  =     38    algorithm
   LDIAG  =      T    sub-space diagonalisation (order eigenvalues)
   LSUBROT=      F    optimize rotation matrix (better conditioning)
   TURBO    =      0    0=normal 1=particle mesh
   IRESTART =      0    0=no restart 2=restart with 2 vectors
   NREBOOT  =      0    no. of reboots
   NMIN     =      0    reboot dimension
   EREF     =   0.00    reference energy to select bands
   IMIX   =      4    mixing-type and parameters
     AMIX     =   0.40;   BMIX     =  1.00
     AMIX_MAG =   1.60;   BMIX_MAG =  1.00
     AMIN     =   0.10
     WC   =   100.;   INIMIX=   1;  MIXPRE=   1;  MAXMIX= -45

 Intra band minimization:
   WEIMIN = 0.0000     energy-eigenvalue tresh-hold
   EBREAK =  0.13E-09  absolut break condition
   DEPER  =   0.30     relativ break condition  

   TIME   =   0.40     timestep for ELM

  volume/ion in A,a.u.               =      11.81        79.70
  Fermi-wavevector in a.u.,A,eV,Ry     =   1.598763  3.021224 34.777078  2.556043
  Thomas-Fermi vector in A             =   2.696162
 
 Write flags
   LWAVE        =      T    write WAVECAR
   LDOWNSAMPLE  =      F    k-point downsampling of WAVECAR
   LCHARG       =      T    write CHGCAR
   LVTOT        =      F    write LOCPOT, total local potential
   LVHAR        =      F    write LOCPOT, Hartree potential only
   LELF         =      F    write electronic localiz. function (ELF)
   LORBIT       =     11    0 simple, 1 ext, 2 COOP (PROOUT), +10 PAW based schemes


 Dipole corrections
   LMONO  =      F    monopole corrections only (constant potential shift)
   LDIPOL =      F    correct potential (dipole corrections)
   IDIPOL =      0    1-x, 2-y, 3-z, 4-all directions 
   EPSILON=  1.0000000 bulk dielectric constant

 Exchange correlation treatment:
   GGA     =    --    GGA type
   LEXCH   =     8    internal setting for exchange type
   VOSKOWN=      0    Vosko Wilk Nusair interpolation
   LHFCALC =     F    Hartree Fock is set to
   LHFONE  =     F    Hartree Fock one center treatment
   AEXX    =    0.0000 exact exchange contribution

 Linear response parameters
   LEPSILON=     F    determine dielectric tensor
   LRPA    =     F    only Hartree local field effects (RPA)
   LNABLA  =     F    use nabla operator in PAW spheres
   LVEL    =     F    velocity operator in full k-point grid
   LINTERFAST=   F  fast interpolation
   KINTER  =     0    interpolate to denser k-point grid
   CSHIFT  =0.1000    complex shift for real part using Kramers Kronig
   OMEGAMAX=  -1.0    maximum frequency
   DEG_THRESHOLD= 0.2000000E-02 threshold for treating states as degnerate
   RTIME   =   -0.100 relaxation time in fs
  (WPLASMAI=    0.000 imaginary part of plasma frequency in eV, 0.658/RTIME)
   DFIELD  = 0.0000000 0.0000000 0.0000000 field for delta impulse in time
 
 Orbital magnetization related:
   ORBITALMAG=     F  switch on orbital magnetization
   LCHIMAG   =     F  perturbation theory with respect to B field
   DQ        =  0.001000  dq finite difference perturbation B field
   LLRAUG    =     F  two centre corrections for induced B field



--------------------------------------------------------------------------------------------------------


 Static calculation
 charge density and potential remain constant during run
 non-spin polarized calculation
 Variant of blocked Davidson
 Davidson routine will perform the subspace rotation
 perform sub-space diagonalisation
    after iterative eigenvector-optimisation
 no mixing
 using additional bands           14
 reciprocal scheme for non local part
 use partial core corrections
 calculate Harris-corrections to forces 
   (improved forces if not selfconsistent)
 use gradient corrections 
 WARNING: stress and forces are not correct
  (second derivative of E(xc) not defined)
 use of overlap-Matrix (Vanderbilt PP)
 Gauss-broadening in eV      SIGMA  =   0.05


--------------------------------------------------------------------------------------------------------


  energy-cutoff  :      300.00
  volume of cell :       11.81
      direct lattice vectors                 reciprocal lattice vectors
     0.000000000  1.807500000  1.807500000    -0.276625173  0.276625173  0.276625173
     1.807500000  0.000000000  1.807500000     0.276625173 -0.276625173  0.276625173
     1.807500000  1.807500000  0.000000000     0.276625173  0.276625173 -0.276625173

  length of vectors
     2.556191014  2.556191014  2.556191014     0.479128854  0.479128854  0.479128854


 
 old parameters found on file WAVECAR:
  energy-cutoff  :      300.00
  volume of cell :       11.81
      direct lattice vectors                 reciprocal lattice vectors
     0.000000000  1.807500000  1.807500000    -0.276625173  0.276625173  0.276625173
     1.807500000  0.000000000  1.807500000     0.276625173 -0.276625173  0.276625173
     1.807500000  1.807500000  0.000000000     0.276625173  0.276625173 -0.276625173

  length of vectors

 
 k-points in units of 2pi/SCALE and weight: K-Path Generated by VASPKIT.            
   0.00000000  0.00000000  0.00000000       0.010
   0.00000000  0.01455922  0.00000000       0.010
   0.00000000  0.02911844  0.00000000       0.010
   0.00000000  0.04367766  0.00000000       0.010
   0.00000000  0.05823688  0.00000000       0.010
   0.00000000  0.07279610  0.00000000       0.010
   0.00000000  0.08735532  0.00000000       0.010
   0.00000000  0.10191454  0.00000000       0.010
   0.00000000  0.11647376  0.00000000       0.010
   0.00000000  0.13103298  0.00000000       0.010
   0.00000000  0.14559220  0.00000000       0.010
   0.00000000  0.16015142  0.00000000       0.010
   0.00000000  0.17471064  0.00000000       0.010
   0.00000000  0.18926986  0.00000000       0.010
   0.00000000  0.20382907  0.00000000       0.010
   0.00000000  0.21838829  0.00000000       0.010
   0.00000000  0.23294751  0.00000000       0.010
   0.00000000  0.24750673  0.00000000       0.010
   0.00000000  0.26206595  0.00000000       0.010
   0.00000000  0.27662517  0.00000000       0.010
   0.00000000  0.27662517  0.00000000       0.010
   0.00727961  0.27662517  0.00000000       0.010
   0.01455922  0.27662517  0.00000000       0.010
   0.02183883  0.27662517  0.00000000       0.010
   0.02911844  0.27662517  0.00000000       0.010
   0.03639805  0.27662517  0.00000000       0.010
   0.04367766  0.27662517 -0.00000000       0.010
   0.05095727  0.27662517  0.00000000       0.010
   0.05823688  0.27662517  0.00000000       0.010
   0.06551649  0.27662517  0.00000000       0.010
   0.07279610  0.27662517  0.00000000       0.010
   0.08007571  0.27662517  0.00000000       0.010
   0.08735532  0.27662517  0.00000000       0.010
   0.09463493  0.27662517  0.00000000       0.010
   0.10191454  0.27662517 -0.00000000       0.010
   0.10919415  0.27662517  0.00000000       0.010
   0.11647376  0.27662517  0.00000000       0.010
   0.12375337  0.27662517  0.00000000       0.010
   0.13103298  0.27662517  0.00000000       0.010
   0.13831259  0.27662517  0.00000000       0.010
   0.13831259  0.27662517  0.00000000       0.010
   0.14195239  0.27298537 -0.00000000       0.010
   0.14559220  0.26934556 -0.00000000       0.010
   0.14923200  0.26570576  0.00000000       0.010
   0.15287181  0.26206595  0.00000000       0.010
   0.15651161  0.25842615  0.00000000       0.010
   0.16015142  0.25478634  0.00000000       0.010
   0.16379122  0.25114654  0.00000000       0.010
   0.16743103  0.24750673  0.00000000       0.010
   0.17107083  0.24386693  0.00000000       0.010
   0.17471064  0.24022712  0.00000000       0.010
   0.17835044  0.23658732  0.00000000       0.010
   0.18199025  0.23294751  0.00000000       0.010
   0.18563005  0.22930771  0.00000000       0.010
   0.18926986  0.22566790  0.00000000       0.010
   0.19290966  0.22202810  0.00000000       0.010
   0.19654946  0.21838829  0.00000000       0.010
   0.20018927  0.21474849  0.00000000       0.010
   0.20382907  0.21110868  0.00000000       0.010
   0.20746888  0.20746888  0.00000000       0.010
   0.20746888  0.20746888  0.00000000       0.010
   0.19654946  0.19654946  0.00000000       0.010
   0.18563005  0.18563005  0.00000000       0.010
   0.17471064  0.17471064  0.00000000       0.010
   0.16379122  0.16379122  0.00000000       0.010
   0.15287181  0.15287181  0.00000000       0.010
   0.14195239  0.14195239  0.00000000       0.010
   0.13103298  0.13103298  0.00000000       0.010
   0.12011356  0.12011356  0.00000000       0.010
   0.10919415  0.10919415  0.00000000       0.010
   0.09827473  0.09827473  0.00000000       0.010
   0.08735532  0.08735532  0.00000000       0.010
   0.07643590  0.07643590  0.00000000       0.010
   0.06551649  0.06551649  0.00000000       0.010
   0.05459707  0.05459707  0.00000000       0.010
   0.04367766  0.04367766  0.00000000       0.010
   0.03275824  0.03275824  0.00000000       0.010
   0.02183883  0.02183883  0.00000000       0.010
   0.01091941  0.01091941  0.00000000       0.010
   0.00000000  0.00000000  0.00000000       0.010
   0.00000000  0.00000000  0.00000000       0.010
   0.00727961  0.00727961  0.00727961       0.010
   0.01455922  0.01455922  0.01455922       0.010
   0.02183883  0.02183883  0.02183883       0.010
   0.02911844  0.02911844  0.02911844       0.010
   0.03639805  0.03639805  0.03639805       0.010
   0.04367766  0.04367766  0.04367766       0.010
   0.05095727  0.05095727  0.05095727       0.010
   0.05823688  0.05823688  0.05823688       0.010
   0.06551649  0.06551649  0.06551649       0.010
   0.07279610  0.07279610  0.07279610       0.010
   0.08007571  0.08007571  0.08007571       0.010
   0.08735532  0.08735532  0.08735532       0.010
   0.09463493  0.09463493  0.09463493       0.010
   0.10191454  0.10191454  0.10191454       0.010
   0.10919415  0.10919415  0.10919415       0.010
   0.11647376  0.11647376  0.11647376       0.010
   0.12375337  0.12375337  0.12375337       0.010
   0.13103298  0.13103298  0.13103298       0.010
   0.13831259  0.13831259  0.13831259       0.010
 
 k-points in reciprocal lattice and weights: K-Path Generated by VASPKIT.            
   0.00000000  0.00000000  0.00000000       0.010
   0.02631579  0.00000000  0.02631579       0.010
   0.05263158  0.00000000  0.05263158       0.010
   0.07894737  0.00000000  0.07894737       0.010
   0.10526316  0.00000000  0.10526316       0.010
   0.13157895  0.00000000  0.13157895       0.010
   0.15789474  0.00000000  0.15789474       0.010
   0.18421053  0.00000000  0.18421053       0.010
   0.21052632  0.00000000  0.21052632       0.010
   0.23684211  0.00000000  0.23684211       0.010
   0.26315789  0.00000000  0.26315789       0.010
   0.28947368  0.00000000  0.28947368       0.010
   0.31578947  0.00000000  0.31578947       0.010
   0.34210526  0.00000000  0.34210526       0.010
   0.36842105  0.00000000  0.36842105       0.010
   0.39473684  0.00000000  0.39473684       0.010
   0.42105263  0.00000000  0.42105263       0.010
   0.44736842  0.00000000  0.44736842       0.010
   0.47368421  0.00000000  0.47368421       0.010
   0.50000000  0.00000000  0.50000000       0.010
   0.50000000  0.00000000  0.50000000       0.010
   0.50000000  0.01315789  0.51315789       0.010
   0.50000000  0.02631579  0.52631579       0.010
   0.50000000  0.03947368  0.53947368       0.010
   0.50000000  0.05263158  0.55263158       0.010
   0.50000000  0.06578947  0.56578947       0.010
   0.50000000  0.07894737  0.57894737       0.010
   0.50000000  0.09210526  0.59210526       0.010
   0.50000000  0.10526316  0.60526316       0.010
   0.50000000  0.11842105  0.61842105       0.010
   0.50000000  0.13157895  0.63157895       0.010
   0.50000000  0.14473684  0.64473684       0.010
   0.50000000  0.15789474  0.65789474       0.010
   0.50000000  0.17105263  0.67105263       0.010
   0.50000000  0.18421053  0.68421053       0.010
   0.50000000  0.19736842  0.69736842       0.010
   0.50000000  0.21052632  0.71052632       0.010
   0.50000000  0.22368421  0.72368421       0.010
   0.50000000  0.23684211  0.73684211       0.010
   0.50000000  0.25000000  0.75000000       0.010
   0.50000000  0.25000000  0.75000000       0.010
   0.49342105  0.25657895  0.75000000       0.010
   0.48684211  0.26315789  0.75000000       0.010
   0.48026316  0.26973684  0.75000000       0.010
   0.47368421  0.27631579  0.75000000       0.010
   0.46710526  0.28289474  0.75000000       0.010
   0.46052632  0.28947368  0.75000000       0.010
   0.45394737  0.29605263  0.75000000       0.010
   0.44736842  0.30263158  0.75000000       0.010
   0.44078947  0.30921053  0.75000000       0.010
   0.43421053  0.31578947  0.75000000       0.010
   0.42763158  0.32236842  0.75000000       0.010
   0.42105263  0.32894737  0.75000000       0.010
   0.41447368  0.33552632  0.75000000       0.010
   0.40789474  0.34210526  0.75000000       0.010
   0.40131579  0.34868421  0.75000000       0.010
   0.39473684  0.35526316  0.75000000       0.010
   0.38815789  0.36184211  0.75000000       0.010
   0.38157895  0.36842105  0.75000000       0.010
   0.37500000  0.37500000  0.75000000       0.010
   0.37500000  0.37500000  0.75000000       0.010
   0.35526316  0.35526316  0.71052632       0.010
   0.33552632  0.33552632  0.67105263       0.010
   0.31578947  0.31578947  0.63157895       0.010
   0.29605263  0.29605263  0.59210526       0.010
   0.27631579  0.27631579  0.55263158       0.010
   0.25657895  0.25657895  0.51315789       0.010
   0.23684211  0.23684211  0.47368421       0.010
   0.21710526  0.21710526  0.43421053       0.010
   0.19736842  0.19736842  0.39473684       0.010
   0.17763158  0.17763158  0.35526316       0.010
   0.15789474  0.15789474  0.31578947       0.010
   0.13815789  0.13815789  0.27631579       0.010
   0.11842105  0.11842105  0.23684211       0.010
   0.09868421  0.09868421  0.19736842       0.010
   0.07894737  0.07894737  0.15789474       0.010
   0.05921053  0.05921053  0.11842105       0.010
   0.03947368  0.03947368  0.07894737       0.010
   0.01973684  0.01973684  0.03947368       0.010
   0.00000000  0.00000000  0.00000000       0.010
   0.00000000  0.00000000  0.00000000       0.010
   0.02631579  0.02631579  0.02631579       0.010
   0.05263158  0.05263158  0.05263158       0.010
   0.07894737  0.07894737  0.07894737       0.010
   0.10526316  0.10526316  0.10526316       0.010
   0.13157895  0.13157895  0.13157895       0.010
   0.15789474  0.15789474  0.15789474       0.010
   0.18421053  0.18421053  0.18421053       0.010
   0.21052632  0.21052632  0.21052632       0.010
   0.23684211  0.23684211  0.23684211       0.010
   0.26315789  0.26315789  0.26315789       0.010
   0.28947368  0.28947368  0.28947368       0.010
   0.31578947  0.31578947  0.31578947       0.010
   0.34210526  0.34210526  0.34210526       0.010
   0.36842105  0.36842105  0.36842105       0.010
   0.39473684  0.39473684  0.39473684       0.010
   0.42105263  0.42105263  0.42105263       0.010
   0.44736842  0.44736842  0.44736842       0.010
   0.47368421  0.47368421  0.47368421       0.010
   0.50000000  0.50000000  0.50000000       0.010
 
 position of ions in fractional coordinates (direct lattice) 
   0.00000000  0.00000000  0.00000000
 
 position of ions in cartesian coordinates  (Angst):
   0.00000000  0.00000000  0.00000000
 


--------------------------------------------------------------------------------------------------------


 k-point  1 :   0.0000 0.0000 0.0000  plane waves:     137
 k-point  2 :   0.0263 0.0000 0.0263  plane waves:     137
 k-point  3 :   0.0526 0.0000 0.0526  plane waves:     141
 k-point  4 :   0.0789 0.0000 0.0789  plane waves:     141
 k-point  5 :   0.1053 0.0000 0.1053  plane waves:     145
 k-point  6 :   0.1316 0.0000 0.1316  plane waves:     141
 k-point  7 :   0.1579 0.0000 0.1579  plane waves:     141
 k-point  8 :   0.1842 0.0000 0.1842  plane waves:     141
 k-point  9 :   0.2105 0.0000 0.2105  plane waves:     141
 k-point 10 :   0.2368 0.0000 0.2368  plane waves:     133
 k-point 11 :   0.2632 0.0000 0.2632  plane waves:     133
 k-point 12 :   0.2895 0.0000 0.2895  plane waves:     133
 k-point 13 :   0.3158 0.0000 0.3158  plane waves:     133
 k-point 14 :   0.3421 0.0000 0.3421  plane waves:     133
 k-point 15 :   0.3684 0.0000 0.3684  plane waves:     129
 k-point 16 :   0.3947 0.0000 0.3947  plane waves:     137
 k-point 17 :   0.4211 0.0000 0.4211  plane waves:     141
 k-point 18 :   0.4474 0.0000 0.4474  plane waves:     142
 k-point 19 :   0.4737 0.0000 0.4737  plane waves:     142
 k-point 20 :   0.5000 0.0000 0.5000  plane waves:     150
 k-point 21 :   0.5000 0.0000 0.5000  plane waves:     150
 k-point 22 :   0.5000 0.0132 0.5132  plane waves:     144
 k-point 23 :   0.5000 0.0263 0.5263  plane waves:     138
 k-point 24 :   0.5000 0.0395 0.5395  plane waves:     138
 k-point 25 :   0.5000 0.0526 0.5526  plane waves:     138
 k-point 26 :   0.5000 0.0658 0.5658  plane waves:     136
 k-point 27 :   0.5000 0.0789 0.5789  plane waves:     136
 k-point 28 :   0.5000 0.0921 0.5921  plane waves:     136
 k-point 29 :   0.5000 0.1053 0.6053  plane waves:     136
 k-point 30 :   0.5000 0.1184 0.6184  plane waves:     136
 k-point 31 :   0.5000 0.1316 0.6316  plane waves:     136
 k-point 32 :   0.5000 0.1447 0.6447  plane waves:     136
 k-point 33 :   0.5000 0.1579 0.6579  plane waves:     136
 k-point 34 :   0.5000 0.1711 0.6711  plane waves:     136
 k-point 35 :   0.5000 0.1842 0.6842  plane waves:     136
 k-point 36 :   0.5000 0.1974 0.6974  plane waves:     140
 k-point 37 :   0.5000 0.2105 0.7105  plane waves:     144
 k-point 38 :   0.5000 0.2237 0.7237  plane waves:     144
 k-point 39 :   0.5000 0.2368 0.7368  plane waves:     144
 k-point 40 :   0.5000 0.2500 0.7500  plane waves:     144
 k-point 41 :   0.5000 0.2500 0.7500  plane waves:     144
 k-point 42 :   0.4934 0.2566 0.7500  plane waves:     144
 k-point 43 :   0.4868 0.2632 0.7500  plane waves:     144
 k-point 44 :   0.4803 0.2697 0.7500  plane waves:     144
 k-point 45 :   0.4737 0.2763 0.7500  plane waves:     144
 k-point 46 :   0.4671 0.2829 0.7500  plane waves:     144
 k-point 47 :   0.4605 0.2895 0.7500  plane waves:     139
 k-point 48 :   0.4539 0.2961 0.7500  plane waves:     139
 k-point 49 :   0.4474 0.3026 0.7500  plane waves:     140
 k-point 50 :   0.4408 0.3092 0.7500  plane waves:     134
 k-point 51 :   0.4342 0.3158 0.7500  plane waves:     134
 k-point 52 :   0.4276 0.3224 0.7500  plane waves:     136
 k-point 53 :   0.4211 0.3289 0.7500  plane waves:     136
 k-point 54 :   0.4145 0.3355 0.7500  plane waves:     136
 k-point 55 :   0.4079 0.3421 0.7500  plane waves:     136
 k-point 56 :   0.4013 0.3487 0.7500  plane waves:     136
 k-point 57 :   0.3947 0.3553 0.7500  plane waves:     136
 k-point 58 :   0.3882 0.3618 0.7500  plane waves:     136
 k-point 59 :   0.3816 0.3684 0.7500  plane waves:     134
 k-point 60 :   0.3750 0.3750 0.7500  plane waves:     134
 k-point 61 :   0.3750 0.3750 0.7500  plane waves:     134
 k-point 62 :   0.3553 0.3553 0.7105  plane waves:     138
 k-point 63 :   0.3355 0.3355 0.6711  plane waves:     136
 k-point 64 :   0.3158 0.3158 0.6316  plane waves:     140
 k-point 65 :   0.2961 0.2961 0.5921  plane waves:     136
 k-point 66 :   0.2763 0.2763 0.5526  plane waves:     136
 k-point 67 :   0.2566 0.2566 0.5132  plane waves:     138
 k-point 68 :   0.2368 0.2368 0.4737  plane waves:     138
 k-point 69 :   0.2171 0.2171 0.4342  plane waves:     140
 k-point 70 :   0.1974 0.1974 0.3947  plane waves:     144
 k-point 71 :   0.1776 0.1776 0.3553  plane waves:     143
 k-point 72 :   0.1579 0.1579 0.3158  plane waves:     143
 k-point 73 :   0.1382 0.1382 0.2763  plane waves:     143
 k-point 74 :   0.1184 0.1184 0.2368  plane waves:     143
 k-point 75 :   0.0987 0.0987 0.1974  plane waves:     143
 k-point 76 :   0.0789 0.0789 0.1579  plane waves:     147
 k-point 77 :   0.0592 0.0592 0.1184  plane waves:     143
 k-point 78 :   0.0395 0.0395 0.0789  plane waves:     137
 k-point 79 :   0.0197 0.0197 0.0395  plane waves:     137
 k-point 80 :   0.0000 0.0000 0.0000  plane waves:     137
 k-point 81 :   0.0000 0.0000 0.0000  plane waves:     137
 k-point 82 :   0.0263 0.0263 0.0263  plane waves:     137
 k-point 83 :   0.0526 0.0526 0.0526  plane waves:     138
 k-point 84 :   0.0789 0.0789 0.0789  plane waves:     141
 k-point 85 :   0.1053 0.1053 0.1053  plane waves:     147
 k-point 86 :   0.1316 0.1316 0.1316  plane waves:     144
 k-point 87 :   0.1579 0.1579 0.1579  plane waves:     144
 k-point 88 :   0.1842 0.1842 0.1842  plane waves:     150
 k-point 89 :   0.2105 0.2105 0.2105  plane waves:     150
 k-point 90 :   0.2368 0.2368 0.2368  plane waves:     150
 k-point 91 :   0.2632 0.2632 0.2632  plane waves:     144
 k-point 92 :   0.2895 0.2895 0.2895  plane waves:     144
 k-point 93 :   0.3158 0.3158 0.3158  plane waves:     144
 k-point 94 :   0.3421 0.3421 0.3421  plane waves:     144
 k-point 95 :   0.3684 0.3684 0.3684  plane waves:     144
 k-point 96 :   0.3947 0.3947 0.3947  plane waves:     144
 k-point 97 :   0.4211 0.4211 0.4211  plane waves:     147
 k-point 98 :   0.4474 0.4474 0.4474  plane waves:     147
 k-point 99 :   0.4737 0.4737 0.4737  plane waves:     138
 k-point ** :   0.5000 0.5000 0.5000  plane waves:     138

 maximum and minimum number of plane-waves per node :       150      129

 maximum number of plane-waves:       150
 maximum index in each direction: 
   IXMAX=    3   IYMAX=    3   IZMAX=    3
   IXMIN=   -4   IYMIN=   -4   IZMIN=   -4


 serial   3D FFT for wavefunctions
 parallel 3D FFT for charge:
    minimum data exchange during FFTs selected (reduces bandwidth)


 total amount of memory used by VASP MPI-rank0    32868. kBytes
=======================================================================

   base      :      30000. kBytes
   nonl-proj :       2306. kBytes
   fftplans  :         68. kBytes
   grid      :        191. kBytes
   one-center:         15. kBytes
   wavefun   :        288. kBytes
 
     INWAV:  cpu time    0.0185: real time    0.0189
 initial charge density was supplied:
 number of electron      10.9999928 magnetization 
 keeping initial charge density in first step


--------------------------------------------------------------------------------------------------------


 Maximum index for augmentation-charges          604 (set IRDMAX)


--------------------------------------------------------------------------------------------------------


 First call to EWALD:  gamma=   0.778
 Maximum number of real-space cells 3x 3x 3
 Maximum number of reciprocal cells 3x 3x 3

    FEWALD:  cpu time    0.0009: real time    0.0009


--------------------------------------- Iteration      1(   1)  ---------------------------------------


    POTLOK:  cpu time    0.0043: real time    0.0068
    SETDIJ:  cpu time    0.0017: real time    0.0017
     EDDAV:  cpu time    0.2287: real time    0.2289
       DOS:  cpu time    0.0006: real time    0.0007
    --------------------------------------------
      LOOP:  cpu time    0.2354: real time    0.2380

 eigenvalue-minimisations  :  4020
 total energy-change (2. order) :-0.5014975E+01  (-0.1118708E+03)
 number of electron      10.9999928 magnetization 
 augmentation part       10.9999928 magnetization 

 Free energy of the ion-electron system (eV)
  ---------------------------------------------------
  alpha Z        PSCENC =        61.92233289
  Ewald energy   TEWEN  =     -1104.91640438
  -Hartree energ DENC   =      -338.68322877
  -exchange      EXHF   =         0.00000000
  -V(xc)+E(xc)   XCENC  =        44.68157326
  PAW double counting   =      1317.65959768    -1425.49375839
  entropy T*S    EENTRO =        -0.00012201
  eigenvalues    EBANDS =        48.87645609
  atomic energy  EATOM  =      1390.93857890
  Solvation  Ediel_sol  =         0.00000000
  ---------------------------------------------------
  free energy    TOTEN  =        -5.01497473 eV

  energy without entropy =       -5.01485272  energy(sigma->0) =       -5.01491372


--------------------------------------------------------------------------------------------------------




--------------------------------------- Iteration      1(   2)  ---------------------------------------


     EDDAV:  cpu time    0.2507: real time    0.2518
       DOS:  cpu time    0.0003: real time    0.0003
    --------------------------------------------
      LOOP:  cpu time    0.2510: real time    0.2521

 eigenvalue-minimisations  :  4680
 total energy-change (2. order) :-0.1882457E+00  (-0.1882456E+00)
 number of electron      10.9999928 magnetization 
 augmentation part       10.9999928 magnetization 

 Free energy of the ion-electron system (eV)
  ---------------------------------------------------
  alpha Z        PSCENC =        61.92233289
  Ewald energy   TEWEN  =     -1104.91640438
  -Hartree energ DENC   =      -338.68322877
  -exchange      EXHF   =         0.00000000
  -V(xc)+E(xc)   XCENC  =        44.68157326
  PAW double counting   =      1317.65959768    -1425.49375839
  entropy T*S    EENTRO =        -0.00011397
  eigenvalues    EBANDS =        48.68820239
  atomic energy  EATOM  =      1390.93857890
  Solvation  Ediel_sol  =         0.00000000
  ---------------------------------------------------
  free energy    TOTEN  =        -5.20322040 eV

  energy without entropy =       -5.20310643  energy(sigma->0) =       -5.20316341


--------------------------------------------------------------------------------------------------------




--------------------------------------- Iteration      1(   3)  ---------------------------------------


     EDDAV:  cpu time    0.3230: real time    0.3230
       DOS:  cpu time    0.0004: real time    0.0003
    --------------------------------------------
      LOOP:  cpu time    0.3233: real time    0.3233

 eigenvalue-minimisations  :  5440
 total energy-change (2. order) :-0.1297887E-03  (-0.1297888E-03)
 number of electron      10.9999928 magnetization 
 augmentation part       10.9999928 magnetization 

 Free energy of the ion-electron system (eV)
  ---------------------------------------------------
  alpha Z        PSCENC =        61.92233289
  Ewald energy   TEWEN  =     -1104.91640438
  -Hartree energ DENC   =      -338.68322877
  -exchange      EXHF   =         0.00000000
  -V(xc)+E(xc)   XCENC  =        44.68157326
  PAW double counting   =      1317.65959768    -1425.49375839
  entropy T*S    EENTRO =        -0.00011400
  eigenvalues    EBANDS =        48.68807263
  atomic energy  EATOM  =      1390.93857890
  Solvation  Ediel_sol  =         0.00000000
  ---------------------------------------------------
  free energy    TOTEN  =        -5.20335018 eV

  energy without entropy =       -5.20323618  energy(sigma->0) =       -5.20329318


--------------------------------------------------------------------------------------------------------




--------------------------------------- Iteration      1(   4)  ---------------------------------------


     EDDAV:  cpu time    0.2553: real time    0.2560
       DOS:  cpu time    0.0003: real time    0.0003
    --------------------------------------------
      LOOP:  cpu time    0.2556: real time    0.2563

 eigenvalue-minimisations  :  4820
 total energy-change (2. order) :-0.4144567E-07  (-0.4149463E-07)
 number of electron      10.9999928 magnetization 
 augmentation part       10.9999928 magnetization 

 Free energy of the ion-electron system (eV)
  ---------------------------------------------------
  alpha Z        PSCENC =        61.92233289
  Ewald energy   TEWEN  =     -1104.91640438
  -Hartree energ DENC   =      -338.68322877
  -exchange      EXHF   =         0.00000000
  -V(xc)+E(xc)   XCENC  =        44.68157326
  PAW double counting   =      1317.65959768    -1425.49375839
  entropy T*S    EENTRO =        -0.00011400
  eigenvalues    EBANDS =        48.68807259
  atomic energy  EATOM  =      1390.93857890
  Solvation  Ediel_sol  =         0.00000000
  ---------------------------------------------------
  free energy    TOTEN  =        -5.20335023 eV

  energy without entropy =       -5.20323622  energy(sigma->0) =       -5.20329322


--------------------------------------------------------------------------------------------------------




--------------------------------------- Iteration      1(   5)  ---------------------------------------


     EDDAV:  cpu time    0.3021: real time    0.3021
       DOS:  cpu time    0.0004: real time    0.0004
    --------------------------------------------
      LOOP:  cpu time    0.3025: real time    0.3025

 eigenvalue-minimisations  :  5300
 total energy-change (2. order) : 0.9458745E-10  (-0.1093323E-10)
 number of electron      10.9999928 magnetization 
 augmentation part       10.9999928 magnetization 

 Free energy of the ion-electron system (eV)
  ---------------------------------------------------
  alpha Z        PSCENC =        61.92233289
  Ewald energy   TEWEN  =     -1104.91640438
  -Hartree energ DENC   =      -338.68322877
  -exchange      EXHF   =         0.00000000
  -V(xc)+E(xc)   XCENC  =        44.68157326
  PAW double counting   =      1317.65959768    -1425.49375839
  entropy T*S    EENTRO =        -0.00011400
  eigenvalues    EBANDS =        48.68807259
  atomic energy  EATOM  =      1390.93857890
  Solvation  Ediel_sol  =         0.00000000
  ---------------------------------------------------
  free energy    TOTEN  =        -5.20335023 eV

  energy without entropy =       -5.20323622  energy(sigma->0) =       -5.20329322


--------------------------------------------------------------------------------------------------------




 average (electrostatic) potential at core
  the test charge radii are     0.9430
  (the norm of the test charge is              1.0000)
       1 -63.6866
 
 
 
 E-fermi :   7.5380     XC(G=0): -12.7237     alpha+bet :-13.4240


 k-point     1 :       0.0000    0.0000    0.0000
  band No.  band energies     occupation 
      1      -1.7661      2.00000
      2       4.5771      2.00000
      3       4.5771      2.00000
      4       4.5771      2.00000
      5       5.3891      2.00000
      6       5.3891      2.00000
      7      30.1886      0.00000
      8      32.8258      0.00000
      9      32.8258      0.00000
     10      32.8258      0.00000
     11      35.3195      0.00000
     12      35.3195      0.00000
     13      35.3195      0.00000
     14      39.0863      0.00000
     15      43.8657      0.00000
     16      43.8658      0.00000
     17      43.8658      0.00000
     18      46.4233      0.00000
     19      46.4233      0.00000
     20      60.4332      0.00000

 k-point     2 :       0.0263    0.0000    0.0263
  band No.  band energies     occupation 
      1      -1.7324      2.00000
      2       4.5671      2.00000
      3       4.5851      2.00000
      4       4.5851      2.00000
      5       5.3802      2.00000
      6       5.3927      2.00000
      7      30.0634      0.00000
      8      32.4029      0.00000
      9      32.4030      0.00000
     10      32.6748      0.00000
     11      35.5165      0.00000
     12      35.7585      0.00000
     13      35.7585      0.00000
     14      39.2098      0.00000
     15      42.9867      0.00000
     16      43.9291      0.00000
     17      43.9291      0.00000
     18      46.4358      0.00000
     19      47.3519      0.00000
     20      60.5427      0.00000

 k-point     3 :       0.0526    0.0000    0.0526
  band No.  band energies     occupation 
      1      -1.6315      2.00000
      2       4.5373      2.00000
      3       4.6087      2.00000
      4       4.6087      2.00000
      5       5.3509      2.00000
      6       5.4036      2.00000
      7      29.7354      0.00000
      8      31.5412      0.00000
      9      31.5412      0.00000
     10      32.2701      0.00000
     11      36.0593      0.00000
     12      36.6671      0.00000
     13      36.6672      0.00000
     14      39.3093      0.00000
     15      41.7739      0.00000
     16      44.1199      0.00000
     17      44.1200      0.00000
     18      46.4733      0.00000
     19      48.9063      0.00000
     20      60.8781      0.00000

 k-point     4 :       0.0789    0.0000    0.0789
  band No.  band energies     occupation 
      1      -1.4642      2.00000
      2       4.4888      2.00000
      3       4.6483      2.00000
      4       4.6483      2.00000
      5       5.3072      2.00000
      6       5.4214      2.00000
      7      29.2961      0.00000
      8      30.5729      0.00000
      9      30.5729      0.00000
     10      31.7114      0.00000
     11      36.8557      0.00000
     12      37.7113      0.00000
     13      37.7113      0.00000
     14      38.4871      0.00000
     15      41.6272      0.00000
     16      44.4414      0.00000
     17      44.4415      0.00000
     18      46.5360      0.00000
     19      50.4916      0.00000
     20      61.4651      0.00000

 k-point     5 :       0.1053    0.0000    0.1053
  band No.  band energies     occupation 
      1      -1.2322      2.00000
      2       4.4210      2.00000
      3       4.7017      2.00000
      4       4.7017      2.00000
      5       5.2491      2.00000
      6       5.4457      2.00000
      7      28.8140      0.00000
      8      29.5880      0.00000
      9      29.5881      0.00000
     10      31.0725      0.00000
     11      36.9403      0.00000
     12      37.8311      0.00000
     13      38.7945      0.00000
     14      38.7945      0.00000
     15      42.3638      0.00000
     16      44.8979      0.00000
     17      44.8979      0.00000
     18      46.6240      0.00000
     19      51.9701      0.00000
     20      62.3259      0.00000

 k-point     6 :       0.1316    0.0000    0.1316
  band No.  band energies     occupation 
      1      -0.9379      2.00000
      2       4.3399      2.00000
      3       4.7721      2.00000
      4       4.7721      2.00000
      5       5.1810      2.00000
      6       5.4758      2.00000
      7      28.3349      0.00000
      8      28.6173      0.00000
      9      28.6174      0.00000
     10      30.3938      0.00000
     11      35.2639      0.00000
     12      38.9475      0.00000
     13      39.8857      0.00000
     14      39.8857      0.00000
     15      43.3727      0.00000
     16      45.4954      0.00000
     17      45.4954      0.00000
     18      46.7376      0.00000
     19      53.2992      0.00000
     20      63.4781      0.00000

 k-point     7 :       0.1579    0.0000    0.1579
  band No.  band energies     occupation 
      1      -0.5849      2.00000
      2       4.2456      2.00000
      3       4.8549      2.00000
      4       4.8550      2.00000
      5       5.1056      2.00000
      6       5.5111      2.00000
      7      27.6733      0.00000
      8      27.6733      0.00000
      9      27.8764      0.00000
     10      29.6705      0.00000
     11      33.6303      0.00000
     12      40.1755      0.00000
     13      40.9661      0.00000
     14      40.9661      0.00000
     15      44.4825      0.00000
     16      46.2352      0.00000
     17      46.2352      0.00000
     18      46.8770      0.00000
     19      54.4727      0.00000
     20      64.8981      0.00000

 k-point     8 :       0.1842    0.0000    0.1842
  band No.  band energies     occupation 
      1      -0.1789      2.00000
      2       4.1415      2.00000
      3       4.9507      2.00000
      4       4.9507      2.00000
      5       5.0312      2.00000
      6       5.5505      2.00000
      7      26.7645      0.00000
      8      26.7645      0.00000
      9      27.4503      0.00000
     10      28.8532      0.00000
     11      32.1455      0.00000
     12      41.5027      0.00000
     13      42.0289      0.00000
     14      42.0289      0.00000
     15      45.6268      0.00000
     16      47.0421      0.00000
     17      47.1185      0.00000
     18      47.1185      0.00000
     19      55.5246      0.00000
     20      66.5439      0.00000

 k-point     9 :       0.2105    0.0000    0.2105
  band No.  band energies     occupation 
      1       0.2714      2.00000
      2       4.0305      2.00000
      3       4.9680      2.00000
      4       5.0577      2.00000
      5       5.0577      2.00000
      6       5.5931      2.00000
      7      25.8971      0.00000
      8      25.8971      0.00000
      9      27.0616      0.00000
     10      27.8497      0.00000
     11      30.9268      0.00000
     12      42.9203      0.00000
     13      43.0747      0.00000
     14      43.0747      0.00000
     15      46.7643      0.00000
     16      47.2328      0.00000
     17      48.1394      0.00000
     18      48.1394      0.00000
     19      56.5014      0.00000
     20      68.3454      0.00000

 k-point    10 :       0.2368    0.0000    0.2368
  band No.  band energies     occupation 
      1       0.7524      2.00000
      2       3.9177      2.00000
      3       4.9313      2.00000
      4       5.1758      2.00000
      5       5.1758      2.00000
      6       5.6387      2.00000
      7      25.0767      0.00000
      8      25.0767      0.00000
      9      26.6092      0.00000
     10      26.7133      0.00000
     11      30.0375      0.00000
     12      44.1132      0.00000
     13      44.1132      0.00000
     14      44.4243      0.00000
     15      47.4484      0.00000
     16      47.8637      0.00000
     17      49.2872      0.00000
     18      49.2872      0.00000
     19      57.4570      0.00000
     20      67.1148      0.00000

 k-point    11 :       0.2632    0.0000    0.2632
  band No.  band energies     occupation 
      1       1.2420      2.00000
      2       3.8022      2.00000
      3       4.9441      2.00000
      4       5.2990      2.00000
      5       5.2990      2.00000
      6       5.6839      2.00000
      7      24.3084      0.00000
      8      24.3084      0.00000
      9      25.1974      0.00000
     10      26.4029      0.00000
     11      29.4181      0.00000
     12      45.1507      0.00000
     13      45.1507      0.00000
     14      46.0072      0.00000
     15      47.6873      0.00000
     16      48.8984      0.00000
     17      50.5449      0.00000
     18      50.5449      0.00000
     19      58.3946      0.00000
     20      65.7816      0.00000

 k-point    12 :       0.2895    0.0000    0.2895
  band No.  band energies     occupation 
      1       1.7060      2.00000
      2       3.6895      2.00000
      3       5.0415      2.00000
      4       5.4263      2.00000
      5       5.4263      2.00000
      6       5.7286      2.00000
      7      23.5977      0.00000
      8      23.5977      0.00000
      9      23.7129      0.00000
     10      26.1309      0.00000
     11      28.9740      0.00000
     12      46.2011      0.00000
     13      46.2011      0.00000
     14      47.6669      0.00000
     15      47.9472      0.00000
     16      49.8517      0.00000
     17      51.8976      0.00000
     18      51.8976      0.00000
     19      59.3230      0.00000
     20      64.5298      0.00000

 k-point    13 :       0.3158    0.0000    0.3158
  band No.  band energies     occupation 
      1       2.1002      2.00000
      2       3.5823      2.00000
      3       5.2671      2.00000
      4       5.5543      2.00000
      5       5.5543      2.00000
      6       5.7718      2.00000
      7      22.2199      0.00000
      8      22.9501      0.00000
      9      22.9501      0.00000
     10      25.8961      0.00000
     11      28.6436      0.00000
     12      47.2742      0.00000
     13      47.2742      0.00000
     14      48.2244      0.00000
     15      49.4004      0.00000
     16      50.7138      0.00000
     17      53.3305      0.00000
     18      53.3305      0.00000
     19      60.2122      0.00000
     20      63.3683      0.00000

 k-point    14 :       0.3421    0.0000    0.3421
  band No.  band energies     occupation 
      1       2.3876      2.00000
      2       3.4836      2.00000
      3       5.6553      2.00000
      4       5.6790      2.00000
      5       5.6790      2.00000
      6       5.8121      2.00000
      7      20.7548      0.00000
      8      22.3715      0.00000
      9      22.3715      0.00000
     10      25.6968      0.00000
     11      28.3934      0.00000
     12      48.3773      0.00000
     13      48.3774      0.00000
     14      48.5127      0.00000
     15      51.2042      0.00000
     16      51.4807      0.00000
     17      54.8295      0.00000
     18      54.8295      0.00000
     19      61.0027      0.00000
     20      62.3068      0.00000

 k-point    15 :       0.3684    0.0000    0.3684
  band No.  band energies     occupation 
      1       2.5655      2.00000
      2       3.3958      2.00000
      3       5.7965      2.00000
      4       5.7965      2.00000
      5       5.8485      2.00000
      6       6.2041      2.00000
      7      19.3429      0.00000
      8      21.8678      0.00000
      9      21.8678      0.00000
     10      25.5314      0.00000
     11      28.2043      0.00000
     12      48.8032      0.00000
     13      49.5179      0.00000
     14      49.5179      0.00000
     15      52.1523      0.00000
     16      53.0740      0.00000
     17      56.3797      0.00000
     18      56.3797      0.00000
     19      61.3593      0.00000
     20      61.6200      0.00000

 k-point    16 :       0.3947    0.0000    0.3947
  band No.  band energies     occupation 
      1       2.6549      2.00000
      2       3.3199      2.00000
      3       5.8762      2.00000
      4       5.9011      2.00000
      5       5.9011      2.00000
      6       6.8726      2.00000
      7      18.0091      0.00000
      8      21.4449      0.00000
      9      21.4450      0.00000
     10      25.3983      0.00000
     11      28.0631      0.00000
     12      49.0781      0.00000
     13      50.6850      0.00000
     14      50.6850      0.00000
     15      52.7249      0.00000
     16      55.0011      0.00000
     17      57.9593      0.00000
     18      57.9593      0.00000
     19      60.4818      0.00000
     20      61.4375      0.00000

 k-point    17 :       0.4211    0.0000    0.4211
  band No.  band energies     occupation 
      1       2.6949      2.00000
      2       3.2598      2.00000
      3       5.9009      2.00000
      4       5.9877      2.00000
      5       5.9878      2.00000
      6       7.6012      0.07371
      7      16.7883      0.00000
      8      21.1088      0.00000
      9      21.1088      0.00000
     10      25.2963      0.00000
     11      27.9616      0.00000
     12      49.3166      0.00000
     13      51.8987      0.00000
     14      51.8988      0.00000
     15      53.1922      0.00000
     16      56.9769      0.00000
     17      59.4737      0.00000
     18      59.4737      0.00000
     19      59.8036      0.00000
     20      60.0276      0.00000

 k-point    18 :       0.4474    0.0000    0.4474
  band No.  band energies     occupation 
      1       2.7078      2.00000
      2       3.2158      2.00000
      3       5.9196      2.00000
      4       6.0540      2.00000
      5       6.0540      2.00000
      6       8.3075      0.00000
      7      15.7421      0.00000
      8      20.8646      0.00000
      9      20.8646      0.00000
     10      25.2243      0.00000
     11      27.8934      0.00000
     12      49.5208      0.00000
     13      53.1515      0.00000
     14      53.1515      0.00000
     15      53.5407      0.00000
     16      58.5309      0.00000
     17      58.5309      0.00000
     18      58.9663      0.00000
     19      59.2946      0.00000
     20      61.0442      0.00000

 k-point    19 :       0.4737    0.0000    0.4737
  band No.  band energies     occupation 
      1       2.7107      2.00000
      2       3.1891      2.00000
      3       5.9310      2.00000
      4       6.0955      2.00000
      5       6.0955      2.00000
      6       8.8629      0.00000
      7      14.9870      0.00000
      8      20.7163      0.00000
      9      20.7164      0.00000
     10      25.1814      0.00000
     11      27.8542      0.00000
     12      49.6551      0.00000
     13      53.7619      0.00000
     14      54.4416      0.00000
     15      54.4416      0.00000
     16      57.1418      0.00000
     17      57.1419      0.00000
     18      58.9776      0.00000
     19      60.8448      0.00000
     20      62.1395      0.00000

 k-point    20 :       0.5000    0.0000    0.5000
  band No.  band energies     occupation 
      1       2.7097      2.00000
      2       3.1799      2.00000
      3       5.9346      2.00000
      4       6.1082      2.00000
      5       6.1082      2.00000
      6       9.0842      0.00000
      7      14.6998      0.00000
      8      20.6664      0.00000
      9      20.6664      0.00000
     10      25.1671      0.00000
     11      27.8414      0.00000
     12      49.6951      0.00000
     13      53.8377      0.00000
     14      55.6713      0.00000
     15      55.6714      0.00000
     16      55.8690      0.00000
     17      55.8690      0.00000
     18      58.8682      0.00000
     19      61.8885      0.00000
     20      62.1047      0.00000

 k-point    21 :       0.5000    0.0000    0.5000
  band No.  band energies     occupation 
      1       2.7097      2.00000
      2       3.1799      2.00000
      3       5.9346      2.00000
      4       6.1082      2.00000
      5       6.1082      2.00000
      6       9.0842      0.00000
      7      14.6998      0.00000
      8      20.6664      0.00000
      9      20.6664      0.00000
     10      25.1671      0.00000
     11      27.8414      0.00000
     12      49.6951      0.00000
     13      53.8377      0.00000
     14      55.6713      0.00000
     15      55.6714      0.00000
     16      55.8690      0.00000
     17      55.8690      0.00000
     18      58.8682      0.00000
     19      61.8885      0.00000
     20      62.1047      0.00000

 k-point    22 :       0.5000    0.0132    0.5132
  band No.  band energies     occupation 
      1       2.7147      2.00000
      2       3.1826      2.00000
      3       5.9325      2.00000
      4       6.0937      2.00000
      5       6.1084      2.00000
      6       9.1077      0.00000
      7      14.7028      0.00000
      8      20.6035      0.00000
      9      20.6280      0.00000
     10      25.2405      0.00000
     11      27.8985      0.00000
     12      49.6170      0.00000
     13      53.5852      0.00000
     14      55.4631      0.00000
     15      55.6820      0.00000
     16      55.8714      0.00000
     17      56.2347      0.00000
     18      58.9871      0.00000
     19      61.8839      0.00000
     20      62.2038      0.00000

 k-point    23 :       0.5000    0.0263    0.5263
  band No.  band energies     occupation 
      1       2.7277      2.00000
      2       3.1901      2.00000
      3       5.9245      2.00000
      4       6.0473      2.00000
      5       6.1099      2.00000
      6       9.1768      0.00000
      7      14.7119      0.00000
      8      20.4257      0.00000
      9      20.5161      0.00000
     10      25.4495      0.00000
     11      28.0658      0.00000
     12      49.3634      0.00000
     13      53.1299      0.00000
     14      54.9102      0.00000
     15      55.7184      0.00000
     16      55.8768      0.00000
     17      57.0234      0.00000
     18      59.2181      0.00000
     19      61.8632      0.00000
     20      62.3580      0.00000

 k-point    24 :       0.5000    0.0395    0.5395
  band No.  band energies     occupation 
      1       2.7471      2.00000
      2       3.2019      2.00000
      3       5.9097      2.00000
      4       5.9742      2.00000
      5       6.1099      2.00000
      6       9.2874      0.00000
      7      14.7272      0.00000
      8      20.1583      0.00000
      9      20.3408      0.00000
     10      25.7686      0.00000
     11      28.3332      0.00000
     12      48.9243      0.00000
     13      52.7421      0.00000
     14      54.1670      0.00000
     15      55.7654      0.00000
     16      55.8746      0.00000
     17      57.9722      0.00000
     18      59.4060      0.00000
     19      61.8154      0.00000
     20      61.9538      0.00000

 k-point    25 :       0.5000    0.0526    0.5526
  band No.  band energies     occupation 
      1       2.7740      2.00000
      2       3.2184      2.00000
      3       5.8799      2.00000
      4       5.8892      2.00000
      5       6.1098      2.00000
      6       9.4344      0.00000
      7      14.7488      0.00000
      8      19.8288      0.00000
      9      20.1155      0.00000
     10      26.1705      0.00000
     11      28.6872      0.00000
     12      48.3200      0.00000
     13      52.4886      0.00000
     14      53.3294      0.00000
     15      55.8299      0.00000
     16      55.8721      0.00000
     17      59.0009      0.00000
     18      59.5120      0.00000
     19      61.5085      0.00000
     20      61.7513      0.00000

 k-point    26 :       0.5000    0.0658    0.5658
  band No.  band energies     occupation 
      1       2.8079      2.00000
      2       3.2397      2.00000
      3       5.7705      2.00000
      4       5.8637      2.00000
      5       6.1098      2.00000
      6       9.6122      0.00000
      7      14.7769      0.00000
      8      19.4590      0.00000
      9      19.8539      0.00000
     10      26.6336      0.00000
     11      29.1139      0.00000
     12      47.5996      0.00000
     13      52.3555      0.00000
     14      52.4466      0.00000
     15      55.8692      0.00000
     16      55.9103      0.00000
     17      59.5492      0.00000
     18      60.0816      0.00000
     19      61.0514      0.00000
     20      61.6740      0.00000

 k-point    27 :       0.5000    0.0789    0.5789
  band No.  band energies     occupation 
      1       2.8485      2.00000
      2       3.2659      2.00000
      3       5.6492      2.00000
      4       5.8326      2.00000
      5       6.1098      2.00000
      6       9.8161      0.00000
      7      14.8118      0.00000
      8      19.0640      0.00000
      9      19.5680      0.00000
     10      27.1426      0.00000
     11      29.6006      0.00000
     12      46.7963      0.00000
     13      51.5349      0.00000
     14      52.3107      0.00000
     15      55.8661      0.00000
     16      56.0039      0.00000
     17      59.5339      0.00000
     18      60.5991      0.00000
     19      61.1954      0.00000
     20      61.5872      0.00000

 k-point    28 :       0.5000    0.0921    0.5921
  band No.  band energies     occupation 
      1       2.8949      2.00000
      2       3.2970      2.00000
      3       5.5208      2.00000
      4       5.7967      2.00000
      5       6.1098      2.00000
      6      10.0420      0.00000
      7      14.8538      0.00000
      8      18.6540      0.00000
      9      19.2680      0.00000
     10      27.6874      0.00000
     11      30.1366      0.00000
     12      45.9499      0.00000
     13      50.6116      0.00000
     14      52.3280      0.00000
     15      55.8628      0.00000
     16      56.1066      0.00000
     17      59.4887      0.00000
     18      60.1630      0.00000
     19      61.4944      0.00000
     20      62.3345      0.00000

 k-point    29 :       0.5000    0.1053    0.6053
  band No.  band energies     occupation 
      1       2.9466      2.00000
      2       3.3329      2.00000
      3       5.3884      2.00000
      4       5.7565      2.00000
      5       6.1098      2.00000
      6      10.2867      0.00000
      7      14.9032      0.00000
      8      18.2359      0.00000
      9      18.9618      0.00000
     10      28.2614      0.00000
     11      30.7131      0.00000
     12      45.0815      0.00000
     13      49.6848      0.00000
     14      52.3903      0.00000
     15      55.8593      0.00000
     16      56.2117      0.00000
     17      59.4268      0.00000
     18      59.7539      0.00000
     19      61.3988      0.00000
     20      63.4844      0.00000

 k-point    30 :       0.5000    0.1184    0.6184
  band No.  band energies     occupation 
      1       3.0024      2.00000
      2       3.3739      2.00000
      3       5.2545      2.00000
      4       5.7126      2.00000
      5       6.1098      2.00000
      6      10.5478      0.00000
      7      14.9604      0.00000
      8      17.8143      0.00000
      9      18.6555      0.00000
     10      28.8600      0.00000
     11      31.3230      0.00000
     12      44.2040      0.00000
     13      48.7605      0.00000
     14      52.4872      0.00000
     15      55.8557      0.00000
     16      56.3085      0.00000
     17      59.3565      0.00000
     18      59.3851      0.00000
     19      61.3035      0.00000
     20      63.6469      0.00000

 k-point    31 :       0.5000    0.1316    0.6316
  band No.  band energies     occupation 
      1       3.0613      2.00000
      2       3.4198      2.00000
      3       5.1208      2.00000
      4       5.6659      2.00000
      5       6.1099      2.00000
      6      10.8234      0.00000
      7      15.0260      0.00000
      8      17.3921      0.00000
      9      18.3538      0.00000
     10      29.4802      0.00000
     11      31.9600      0.00000
     12      43.3255      0.00000
     13      47.8432      0.00000
     14      52.6123      0.00000
     15      55.8521      0.00000
     16      56.3799      0.00000
     17      59.0750      0.00000
     18      59.2837      0.00000
     19      61.2111      0.00000
     20      63.7855      0.00000

 k-point    32 :       0.5000    0.1447    0.6447
  band No.  band energies     occupation 
      1       3.1219      2.00000
      2       3.4709      2.00000
      3       4.9887      2.00000
      4       5.6172      2.00000
      5       6.1099      2.00000
      6      11.1120      0.00000
      7      15.1002      0.00000
      8      16.9717      0.00000
      9      18.0602      0.00000
     10      30.1200      0.00000
     11      32.6183      0.00000
     12      42.4508      0.00000
     13      46.9374      0.00000
     14      52.7616      0.00000
     15      55.8485      0.00000
     16      56.4021      0.00000
     17      58.8484      0.00000
     18      59.2122      0.00000
     19      61.1238      0.00000
     20      63.9141      0.00000

 k-point    33 :       0.5000    0.1579    0.6579
  band No.  band energies     occupation 
      1       3.1828      2.00000
      2       3.5271      2.00000
      3       4.8592      2.00000
      4       5.5678      2.00000
      5       6.1100      2.00000
      6      11.4125      0.00000
      7      15.1835      0.00000
      8      16.5544      0.00000
      9      17.7776      0.00000
     10      30.7780      0.00000
     11      33.2922      0.00000
     12      41.5833      0.00000
     13      46.0475      0.00000
     14      52.9324      0.00000
     15      55.8450      0.00000
     16      56.3505      0.00000
     17      58.7302      0.00000
     18      59.1448      0.00000
     19      61.0434      0.00000
     20      63.4120      0.00000

 k-point    34 :       0.5000    0.1711    0.6711
  band No.  band energies     occupation 
      1       3.2421      2.00000
      2       3.5884      2.00000
      3       4.7331      2.00000
      4       5.5193      2.00000
      5       6.1101      2.00000
      6      11.7241      0.00000
      7      15.2761      0.00000
      8      16.1415      0.00000
      9      17.5079      0.00000
     10      31.4531      0.00000
     11      33.9747      0.00000
     12      40.7252      0.00000
     13      45.1794      0.00000
     14      53.1227      0.00000
     15      55.8417      0.00000
     16      56.2151      0.00000
     17      58.7310      0.00000
     18      59.0834      0.00000
     19      60.9714      0.00000
     20      62.9180      0.00000

 k-point    35 :       0.5000    0.1842    0.6842
  band No.  band energies     occupation 
      1       3.2979      2.00000
      2       3.6550      2.00000
      3       4.6110      2.00000
      4       5.4731      2.00000
      5       6.1102      2.00000
      6      12.0460      0.00000
      7      15.3783      0.00000
      8      15.7338      0.00000
      9      17.2532      0.00000
     10      32.1446      0.00000
     11      34.6567      0.00000
     12      39.8780      0.00000
     13      44.3416      0.00000
     14      53.3312      0.00000
     15      55.8387      0.00000
     16      56.0082      0.00000
     17      58.8383      0.00000
     18      59.0294      0.00000
     19      60.9091      0.00000
     20      62.4367      0.00000

 k-point    36 :       0.5000    0.1974    0.6974
  band No.  band energies     occupation 
      1       3.3480      2.00000
      2       3.7261      2.00000
      3       4.4914      2.00000
      4       5.4311      2.00000
      5       6.1099      2.00000
      6      12.3775      0.00000
      7      15.3320      0.00000
      8      15.4895      0.00000
      9      17.0152      0.00000
     10      32.8513      0.00000
     11      35.3243      0.00000
     12      39.0424      0.00000
     13      43.5469      0.00000
     14      53.5564      0.00000
     15      55.7529      0.00000
     16      55.8293      0.00000
     17      58.9840      0.00000
     18      59.0271      0.00000
     19      60.8528      0.00000
     20      61.9608      0.00000

 k-point    37 :       0.5000    0.2105    0.7105
  band No.  band energies     occupation 
      1       3.3902      2.00000
      2       3.8029      2.00000
      3       4.3766      2.00000
      4       5.3940      2.00000
      5       6.1098      2.00000
      6      12.7183      0.00000
      7      14.9365      0.00000
      8      15.6082      0.00000
      9      16.7967      0.00000
     10      33.5735      0.00000
     11      35.9536      0.00000
     12      38.2169      0.00000
     13      42.8189      0.00000
     14      53.7972      0.00000
     15      55.4725      0.00000
     16      55.8265      0.00000
     17      58.9438      0.00000
     18      59.2778      0.00000
     19      60.8097      0.00000
     20      61.4971      0.00000

 k-point    38 :       0.5000    0.2237    0.7237
  band No.  band energies     occupation 
      1       3.4223      2.00000
      2       3.8853      2.00000
      3       4.2680      2.00000
      4       5.3667      2.00000
      5       6.1098      2.00000
      6      13.0679      0.00000
      7      14.5478      0.00000
      8      15.7295      0.00000
      9      16.6035      0.00000
     10      34.3112      0.00000
     11      36.5035      0.00000
     12      37.4077      0.00000
     13      42.1991      0.00000
     14      54.0527      0.00000
     15      55.1812      0.00000
     16      55.8250      0.00000
     17      58.9179      0.00000
     18      59.5742      0.00000
     19      60.7792      0.00000
     20      61.0665      0.00000

 k-point    39 :       0.5000    0.2368    0.7368
  band No.  band energies     occupation 
      1       3.4424      2.00000
      2       3.9731      2.00000
      3       4.1645      2.00000
      4       5.3495      2.00000
      5       6.1099      2.00000
      6      13.4260      0.00000
      7      14.1663      0.00000
      8      15.8380      0.00000
      9      16.4518      0.00000
     10      35.0637      0.00000
     11      36.6122      0.00000
     12      36.9014      0.00000
     13      41.7593      0.00000
     14      54.3211      0.00000
     15      54.8886      0.00000
     16      55.8240      0.00000
     17      58.9022      0.00000
     18      59.9065      0.00000
     19      60.6563      0.00000
     20      60.7608      0.00000

 k-point    40 :       0.5000    0.2500    0.7500
  band No.  band energies     occupation 
      1       3.4492      2.00000
      2       4.0661      2.00000
      3       4.0661      2.00000
      4       5.3436      2.00000
      5       6.1099      2.00000
      6      13.7922      0.00000
      7      13.7923      0.00000
      8      15.8886      0.00000
      9      16.3867      0.00000
     10      35.8308      0.00000
     11      35.8308      0.00000
     12      37.0513      0.00000
     13      41.5954      0.00000
     14      54.6006      0.00000
     15      54.6006      0.00000
     16      55.8237      0.00000
     17      58.8970      0.00000
     18      60.2686      0.00000
     19      60.2686      0.00000
     20      60.7546      0.00000

 k-point    41 :       0.5000    0.2500    0.7500
  band No.  band energies     occupation 
      1       3.4492      2.00000
      2       4.0661      2.00000
      3       4.0661      2.00000
      4       5.3436      2.00000
      5       6.1099      2.00000
      6      13.7922      0.00000
      7      13.7923      0.00000
      8      15.8886      0.00000
      9      16.3867      0.00000
     10      35.8308      0.00000
     11      35.8308      0.00000
     12      37.0513      0.00000
     13      41.5954      0.00000
     14      54.6006      0.00000
     15      54.6006      0.00000
     16      55.8237      0.00000
     17      58.8970      0.00000
     18      60.2686      0.00000
     19      60.2686      0.00000
     20      60.7546      0.00000

 k-point    42 :       0.4934    0.2566    0.7500
  band No.  band energies     occupation 
      1       3.4483      2.00000
      2       4.0182      2.00000
      3       4.1147      2.00000
      4       5.3451      2.00000
[...]
      3       4.7063      2.00000
      4       4.7063      2.00000
      5       5.3586      2.00000
      6       5.3586      2.00000
      7      24.6877      0.00000
      8      30.6629      0.00000
      9      31.2457      0.00000
     10      31.2457      0.00000
     11      37.1667      0.00000
     12      37.6897      0.00000
     13      37.6897      0.00000
     14      39.8198      0.00000
     15      39.8198      0.00000
     16      44.1189      0.00000
     17      46.4587      0.00000
     18      52.4085      0.00000
     19      52.4085      0.00000
     20      63.0783      0.00000

 k-point    88 :       0.1842    0.1842    0.1842
  band No.  band energies     occupation 
      1      -0.5666      2.00000
      2       4.3743      2.00000
      3       4.7259      2.00000
      4       4.7259      2.00000
      5       5.3712      2.00000
      6       5.3712      2.00000
      7      23.3275      0.00000
      8      30.5193      0.00000
      9      30.9711      0.00000
     10      30.9711      0.00000
     11      37.1460      0.00000
     12      37.5412      0.00000
     13      37.5412      0.00000
     14      39.9450      0.00000
     15      39.9450      0.00000
     16      44.8797      0.00000
     17      47.9324      0.00000
     18      53.6895      0.00000
     19      53.6895      0.00000
     20      63.8879      0.00000

 k-point    89 :       0.2105    0.2105    0.2105
  band No.  band energies     occupation 
      1      -0.2196      2.00000
      2       4.3412      2.00000
      3       4.7360      2.00000
      4       4.7360      2.00000
      5       5.3996      2.00000
      6       5.3996      2.00000
      7      21.9881      0.00000
      8      30.3535      0.00000
      9      30.7238      0.00000
     10      30.7238      0.00000
     11      37.0205      0.00000
     12      37.0205      0.00000
     13      37.1564      0.00000
     14      40.5357      0.00000
     15      40.5357      0.00000
     16      45.5174      0.00000
     17      49.6504      0.00000
     18      55.0074      0.00000
     19      55.0074      0.00000
     20      64.7211      0.00000

 k-point    90 :       0.2368    0.2368    0.2368
  band No.  band energies     occupation 
      1       0.1586      2.00000
      2       4.3222      2.00000
      3       4.7332      2.00000
      4       4.7332      2.00000
      5       5.4441      2.00000
      6       5.4441      2.00000
      7      20.6770      0.00000
      8      30.1637      0.00000
      9      30.5045      0.00000
     10      30.5045      0.00000
     11      36.3965      0.00000
     12      36.3965      0.00000
     13      37.2008      0.00000
     14      41.3224      0.00000
     15      41.3224      0.00000
     16      46.1375      0.00000
     17      51.4979      0.00000
     18      56.3538      0.00000
     19      56.3538      0.00000
     20      65.5087      0.00000

 k-point    91 :       0.2632    0.2632    0.2632
  band No.  band energies     occupation 
      1       0.5586      2.00000
      2       4.3267      2.00000
      3       4.7196      2.00000
      4       4.7196      2.00000
      5       5.5034      2.00000
      6       5.5034      2.00000
      7      19.3997      0.00000
      8      29.9567      0.00000
      9      30.3134      0.00000
     10      30.3134      0.00000
     11      35.7713      0.00000
     12      35.7713      0.00000
     13      37.2775      0.00000
     14      42.2055      0.00000
     15      42.2055      0.00000
     16      46.7860      0.00000
     17      53.4294      0.00000
     18      57.7248      0.00000
     19      57.7248      0.00000
     20      66.1461      0.00000

 k-point    92 :       0.2895    0.2895    0.2895
  band No.  band energies     occupation 
      1       0.9659      2.00000
      2       4.3680      2.00000
      3       4.6968      2.00000
      4       4.6968      2.00000
      5       5.5706      2.00000
      6       5.5706      2.00000
      7      18.1612      0.00000
      8      29.7410      0.00000
      9      30.1499      0.00000
     10      30.1499      0.00000
     11      35.1763      0.00000
     12      35.1763      0.00000
     13      37.3735      0.00000
     14      43.1520      0.00000
     15      43.1520      0.00000
     16      47.4742      0.00000
     17      55.4254      0.00000
     18      59.1023      0.00000
     19      59.1023      0.00000
     20      64.8046      0.00000

 k-point    93 :       0.3158    0.3158    0.3158
  band No.  band energies     occupation 
      1       1.3604      2.00000
      2       4.4642      2.00000
      3       4.6692      2.00000
      4       4.6692      2.00000
      5       5.6425      2.00000
      6       5.6425      2.00000
      7      16.9669      0.00000
      8      29.5265      0.00000
      9      30.0133      0.00000
     10      30.0133      0.00000
     11      34.6278      0.00000
     12      34.6278      0.00000
     13      37.4816      0.00000
     14      44.1480      0.00000
     15      44.1480      0.00000
     16      48.2103      0.00000
     17      57.4764      0.00000
     18      60.4290      0.00000
     19      60.4290      0.00000
     20      63.3600      0.00000

 k-point    94 :       0.3421    0.3421    0.3421
  band No.  band energies     occupation 
      1       1.7165      2.00000
      2       4.6368      2.00000
      3       4.6398      2.00000
      4       4.6398      2.00000
      5       5.7144      2.00000
      6       5.7144      2.00000
      7      15.8236      0.00000
      8      29.3227      0.00000
      9      29.9025      0.00000
     10      29.9025      0.00000
     11      34.1346      0.00000
     12      34.1346      0.00000
     13      37.5924      0.00000
     14      45.1849      0.00000
     15      45.1849      0.00000
     16      48.9925      0.00000
     17      59.5765      0.00000
     18      61.0659      0.00000
     19      61.0659      0.00000
     20      62.6557      0.00000

 k-point    95 :       0.3684    0.3684    0.3684
  band No.  band energies     occupation 
      1       2.0093      2.00000
      2       4.6113      2.00000
      3       4.6113      2.00000
      4       4.9030      2.00000
      5       5.7823      2.00000
      6       5.7823      2.00000
      7      14.7411      0.00000
      8      29.1374      0.00000
      9      29.8158      0.00000
     10      29.8158      0.00000
     11      33.7033      0.00000
     12      33.7033      0.00000
     13      37.6979      0.00000
     14      46.2548      0.00000
     15      46.2548      0.00000
     16      49.8113      0.00000
     17      59.9873      0.00000
     18      59.9873      0.00000
     19      61.7207      0.00000
     20      63.7140      0.00000

 k-point    96 :       0.3947    0.3947    0.3947
  band No.  band energies     occupation 
      1       2.2260      2.00000
      2       4.5856      2.00000
      3       4.5856      2.00000
      4       5.2623      2.00000
      5       5.8429      2.00000
      6       5.8429      2.00000
      7      13.7346      0.00000
      8      28.9774      0.00000
      9      29.7510      0.00000
     10      29.7510      0.00000
     11      33.3397      0.00000
     12      33.3397      0.00000
     13      37.7917      0.00000
     14      47.3471      0.00000
     15      47.3471      0.00000
     16      50.6463      0.00000
     17      58.6324      0.00000
     18      58.6324      0.00000
     19      63.3995      0.00000
     20      63.9065      0.00000

 k-point    97 :       0.4211    0.4211    0.4211
  band No.  band energies     occupation 
      1       2.3710      2.00000
      2       4.5641      2.00000
      3       4.5641      2.00000
      4       5.6856      2.00000
      5       5.8923      2.00000
      6       5.8923      2.00000
      7      12.8298      0.00000
      8      28.8477      0.00000
      9      29.7048      0.00000
     10      29.7048      0.00000
     11      33.0492      0.00000
     12      33.0492      0.00000
     13      37.8689      0.00000
     14      48.4352      0.00000
     15      48.4352      0.00000
     16      51.4604      0.00000
     17      57.3048      0.00000
     18      57.3048      0.00000
     19      62.2971      0.00000
     20      66.1139      0.00000

 k-point    98 :       0.4474    0.4474    0.4474
  band No.  band energies     occupation 
      1       2.4596      2.00000
      2       4.5480      2.00000
      3       4.5480      2.00000
      4       5.9298      2.00000
      5       5.9298      2.00000
      6       6.1130      2.00000
      7      12.0730      0.00000
      8      28.7524      0.00000
      9      29.6753      0.00000
     10      29.6753      0.00000
     11      32.8372      0.00000
     12      32.8372      0.00000
     13      37.9264      0.00000
     14      49.4857      0.00000
     15      49.4857      0.00000
     16      52.1875      0.00000
     17      56.0821      0.00000
     18      56.0821      0.00000
     19      61.3499      0.00000
     20      67.6873      0.00000

 k-point    99 :       0.4737    0.4737    0.4737
  band No.  band energies     occupation 
      1       2.5096      2.00000
      2       4.5383      2.00000
      3       4.5383      2.00000
      4       5.9543      2.00000
      5       5.9543      2.00000
      6       6.4508      2.00000
      7      11.5437      0.00000
      8      28.6943      0.00000
      9      29.6597      0.00000
     10      29.6597      0.00000
     11      32.7082      0.00000
     12      32.7082      0.00000
     13      37.9643      0.00000
     14      50.3722      0.00000
     15      50.3722      0.00000
     16      52.7198      0.00000
     17      55.1068      0.00000
     18      55.1068      0.00000
     19      60.6821      0.00000
     20      68.6572      0.00000

 k-point   100 :       0.5000    0.5000    0.5000
  band No.  band energies     occupation 
      1       2.5239      2.00000
      2       4.5349      2.00000
      3       4.5349      2.00000
      4       5.9620      2.00000
      5       5.9620      2.00000
      6       6.5836      2.00000
      7      11.3480      0.00000
      8      28.6747      0.00000
      9      29.6546      0.00000
     10      29.6546      0.00000
     11      32.6646      0.00000
     12      32.6646      0.00000
     13      37.9761      0.00000
     14      50.7651      0.00000
     15      50.7651      0.00000
     16      52.9198      0.00000
     17      54.6777      0.00000
     18      54.6777      0.00000
     19      60.4345      0.00000
     20      69.0366      0.00000


--------------------------------------------------------------------------------------------------------


 soft charge-density along one line, spin component           1
         0         1         2         3         4         5         6         7         8         9
 total charge-density along one line
 
 pseudopotential strength for first ion, spin component:           1
 -2.894   0.000   0.000   0.000   0.000  -4.723  -0.000  -0.000
  0.000  -2.894  -0.000   0.000   0.000  -0.000  -4.723   0.000
  0.000  -0.000  -2.893  -0.000   0.000  -0.000   0.000  -4.723
  0.000   0.000  -0.000  -2.894  -0.000  -0.000  -0.000   0.000
  0.000   0.000   0.000  -0.000  -2.893  -0.000  -0.000  -0.000
 -4.723  -0.000  -0.000  -0.000  -0.000  10.288  -0.000   0.000
 -0.000  -4.723   0.000  -0.000  -0.000  -0.000  10.288  -0.000
 -0.000   0.000  -4.723   0.000  -0.000   0.000  -0.000  10.288
 -0.000  -0.000   0.000  -4.723   0.000  -0.000  -0.000  -0.000
 -0.000  -0.000  -0.000   0.000  -4.723   0.000   0.000   0.000
  0.000   0.000   0.000   0.000   0.000   0.000   0.000   0.000
  0.000   0.000   0.000   0.000   0.000   0.000   0.000   0.000
 -0.000  -0.000   0.000   0.000   0.000   0.000   0.000  -0.000
  0.000  -0.000  -0.000  -0.000  -0.000   0.000  -0.000   0.000
 -0.000   0.000   0.000  -0.000  -0.000  -0.000   0.000  -0.000
 -0.000  -0.000   0.000  -0.000   0.000  -0.000   0.000  -0.000
 -0.000  -0.000  -0.000  -0.000   0.000   0.000  -0.000  -0.000
 -0.000  -0.000   0.000  -0.000  -0.000  -0.000   0.000  -0.000
 total augmentation occupancy for first ion, spin component:           1
  2.000   0.000   0.000   0.000   0.000   0.000   0.000   0.000   0.000   0.000   0.000   0.000   0.000   0.000   0.000   0.000
  0.000   2.000   0.000   0.000   0.000   0.000   0.000   0.000   0.000   0.000   0.000   0.000   0.000   0.000   0.000   0.000
  0.000   0.000   2.000   0.000   0.000   0.000   0.000   0.000   0.000   0.000   0.000   0.000   0.000   0.000   0.000   0.000
  0.000   0.000   0.000   2.000   0.000   0.000   0.000   0.000   0.000   0.000   0.000   0.000   0.000   0.000   0.000   0.000
  0.000   0.000   0.000   0.000   2.000   0.000   0.000   0.000   0.000   0.000   0.000   0.000   0.000   0.000   0.000   0.000
  0.000   0.000   0.000   0.000   0.000   0.000   0.000   0.000   0.000   0.000   0.000   0.000   0.000   0.000   0.000   0.000
  0.000   0.000   0.000   0.000   0.000   0.000   0.000   0.000   0.000   0.000   0.000   0.000   0.000   0.000   0.000   0.000
  0.000   0.000   0.000   0.000   0.000   0.000   0.000   0.000   0.000   0.000   0.000   0.000   0.000   0.000   0.000   0.000
  0.000   0.000   0.000   0.000   0.000   0.000   0.000   0.000   0.000   0.000   0.000   0.000   0.000   0.000   0.000   0.000
  0.000   0.000   0.000   0.000   0.000   0.000   0.000   0.000   0.000   0.000   0.000   0.000   0.000   0.000   0.000   0.000
  0.000   0.000   0.000   0.000   0.000   0.000   0.000   0.000   0.000   0.000   1.000   0.000   0.000   0.000   0.000   0.000
  0.000   0.000   0.000   0.000   0.000   0.000   0.000   0.000   0.000   0.000   0.000   0.000   0.000   0.000   0.000   0.000
  0.000   0.000   0.000   0.000   0.000   0.000   0.000   0.000   0.000   0.000   0.000   0.000   0.000   0.000   0.000   0.000
  0.000   0.000   0.000   0.000   0.000   0.000   0.000   0.000   0.000   0.000   0.000   0.000   0.000   0.000   0.000   0.000
  0.000   0.000   0.000   0.000   0.000   0.000   0.000   0.000   0.000   0.000   0.000   0.000   0.000   0.000   0.000   0.000
  0.000   0.000   0.000   0.000   0.000   0.000   0.000   0.000   0.000   0.000   0.000   0.000   0.000   0.000   0.000   0.000
  0.000   0.000   0.000   0.000   0.000   0.000   0.000   0.000   0.000   0.000   0.000   0.000   0.000   0.000   0.000   0.000
  0.000   0.000   0.000   0.000   0.000   0.000   0.000   0.000   0.000   0.000   0.000   0.000   0.000   0.000   0.000   0.000


------------------------ aborting loop because EDIFF is reached ----------------------------------------


 


 total charge     
 
# of ion       s       p       d       tot
------------------------------------------
    1        0.487   0.256   9.331  10.073
 
    CHARGE:  cpu time    0.0028: real time    0.0028
    FORLOC:  cpu time    0.0001: real time    0.0001
    FORNL :  cpu time    0.0027: real time    0.0027
    STRESS:  cpu time    0.0275: real time    0.0276
    FORCOR:  cpu time    0.0012: real time    0.0013
    FORHAR:  cpu time    0.0004: real time    0.0004
    OFIELD:  cpu time    0.0000: real time    0.0000

  FORCE on cell =-STRESS in cart. coord.  units (eV):
  Direction    XX          YY          ZZ          XY          YZ          ZX
  --------------------------------------------------------------------------------------
  Alpha Z    61.92233    61.92233    61.92233
  Ewald    -368.30548  -368.30548  -368.30548     0.00000     0.00000    -0.00000
  Hartree   117.59594   117.59594   117.59594     0.00000     0.00000     0.00000
  E(xc)     -64.27826   -64.27826   -64.27826    -0.00002    -0.00002    -0.00002
  Local      96.15525    96.15525    96.15525     0.00054     0.00054     0.00054
  n-local   -13.25993   -16.13276   -15.52081    -0.91296    -0.09458    -0.09459
  augment    96.61264    96.61264    96.61264    -0.00052    -0.00052    -0.00052
  Kinetic    88.26708    90.99998    89.08545     1.35729     0.82591     0.82591
  Fock        0.00000     0.00000     0.00000     0.00000     0.00000     0.00000
  -------------------------------------------------------------------------------------
  Total      14.18210    14.18210    14.18210     0.00000     0.00000    -0.00000
  in kB    1923.91609  1923.91609  1923.91609     0.00000     0.00000    -0.00000
  external pressure =     1923.92 kB  Pullay stress =        0.00 kB


 VOLUME and BASIS-vectors are now :
 -----------------------------------------------------------------------------
  energy-cutoff  :      300.00
  volume of cell :       11.81
      direct lattice vectors                 reciprocal lattice vectors
     0.000000000  1.807500000  1.807500000    -0.276625173  0.276625173  0.276625173
     1.807500000  0.000000000  1.807500000     0.276625173 -0.276625173  0.276625173
     1.807500000  1.807500000  0.000000000     0.276625173  0.276625173 -0.276625173

  length of vectors
     2.556191014  2.556191014  2.556191014     0.479128854  0.479128854  0.479128854


 FORCES acting on ions
    electron-ion (+dipol)            ewald-force                    non-local-force                 convergence-correction
 -----------------------------------------------------------------------------------------------
   -.442E-13 -.481E-13 -.537E-13   -.170E-14 -.690E-15 -.260E-14   0.808E-27 0.808E-27 0.808E-27   0.765E-12 0.187E-12 0.764E-12
 -----------------------------------------------------------------------------------------------
   -.442E-13 -.481E-13 -.537E-13   -.170E-14 -.690E-15 -.260E-14   0.808E-27 0.808E-27 0.808E-27   0.765E-12 0.187E-12 0.764E-12
 
 
 POSITION                                       TOTAL-FORCE (eV/Angst)
 -----------------------------------------------------------------------------------
      0.00000      0.00000      0.00000         0.000000     -0.000000      0.000000
 -----------------------------------------------------------------------------------
    total drift:                                0.000000      0.000000      0.000000


--------------------------------------------------------------------------------------------------------



  FREE ENERGIE OF THE ION-ELECTRON SYSTEM (eV)
  ---------------------------------------------------
  free  energy   TOTEN  =        -5.20335023 eV

  energy  without entropy=       -5.20323622  energy(sigma->0) =       -5.20329322
 


--------------------------------------------------------------------------------------------------------


    POTLOK:  cpu time    0.0023: real time    0.0023


--------------------------------------------------------------------------------------------------------


 writing wavefunctions
     LOOP+:  cpu time    1.4435: real time    1.5019
    4ORBIT:  cpu time    0.0000: real time    0.0000
 


 total charge     
 
# of ion       s       p       d       tot
------------------------------------------
    1        0.487   0.256   9.331  10.073
 

 total amount of memory used by VASP MPI-rank0    32868. kBytes
=======================================================================

   base      :      30000. kBytes
   nonl-proj :       2306. kBytes
   fftplans  :         68. kBytes
   grid      :        191. kBytes
   one-center:         15. kBytes
   wavefun   :        288. kBytes
 
  
  
 General timing and accounting informations for this job:
 ========================================================
  
                  Total CPU time used (sec):        1.900
                            User time (sec):        1.742
                          System time (sec):        0.159
                         Elapsed time (sec):        2.473
  
                   Maximum memory used (kb):      212332.
                   Average memory used (kb):           0.
  
                          Minor page faults:        19738
                          Major page faults:            0
                 Voluntary context switches:         1617
