PROCAR lm decomposed
# of k-points:  100         # of bands:   20         # of ions:    1

 k-point     1 :    0.00000000 0.00000000 0.00000000     weight = 0.01000000

band     1 # energy   -1.76609816 # occ.  2.00000000
 
ion      s     py     pz     px    dxy    dyz    dz2    dxz  x2-y2    tot
    1  0.586  0.000  0.000  0.000  0.000  0.000  0.000  0.000  0.000  0.586
 
band     2 # energy    4.57708292 # occ.  2.00000000
 
ion      s     py     pz     px    dxy    dyz    dz2    dxz  x2-y2    tot
    1  0.000  0.000  0.000  0.000  0.322  0.322  0.000  0.322  0.000  0.966
 
band     3 # energy    4.57708586 # occ.  2.00000000
 
ion      s     py     pz     px    dxy    dyz    dz2    dxz  x2-y2    tot
    1  0.000  0.000  0.000  0.000  0.020  0.535  0.000  0.411  0.000  0.966
 
band     4 # energy    4.57708586 # occ.  2.00000000
 
ion      s     py     pz     px    dxy    dyz    dz2    dxz  x2-y2    tot
    1  0.000  0.000  0.000  0.000  0.624  0.109  0.000  0.233  0.000  0.966
 
band     5 # energy    5.38905685 # occ.  2.00000000
 
ion      s     py     pz     px    dxy    dyz    dz2    dxz  x2-y2    tot
    1  0.000  0.000  0.000  0.000  0.000  0.000  0.940  0.000  0.048  0.987
 
band     6 # energy    5.38905685 # occ.  2.00000000
 
ion      s     py     pz     px    dxy    dyz    dz2    dxz  x2-y2    tot
    1  0.000  0.000  0.000  0.000  0.000  0.000  0.048  0.000  0.940  0.987
 
band     7 # energy   30.18861030 # occ.  0.00000000
 
ion      s     py     pz     px    dxy    dyz    dz2    dxz  x2-y2    tot
    1  0.000  0.000  0.000  0.000  0.000  0.000  0.000  0.000  0.000  0.000
 
band     8 # energy   32.82576444 # occ.  0.00000000
 
ion      s     py     pz     px    dxy    dyz    dz2    dxz  x2-y2    tot
    1  0.000  0.148  0.148  0.148  0.000  0.000  0.000  0.000  0.000  0.445
 
band     9 # energy   32.82580832 # occ.  0.00000000
 
ion      s     py     pz     px    dxy    dyz    dz2    dxz  x2-y2    tot
    1  0.000  0.182  0.103  0.160  0.000  0.000  0.000  0.000  0.000  0.445
 
band    10 # energy   32.82580832 # occ.  0.00000000
 
ion      s     py     pz     px    dxy    dyz    dz2    dxz  x2-y2    tot
    1  0.000  0.114  0.194  0.137  0.000  0.000  0.000  0.000  0.000  0.445
 
band    11 # energy   35.31946794 # occ.  0.00000000
 
ion      s     py     pz     px    dxy    dyz    dz2    dxz  x2-y2    tot
    1  0.000  0.000  0.000  0.000  0.256  0.256  0.000  0.256  0.000  0.767
 
band    12 # energy   35.31950112 # occ.  0.00000000
 
ion      s     py     pz     px    dxy    dyz    dz2    dxz  x2-y2    tot
    1  0.000  0.000  0.000  0.000  0.500  0.079  0.000  0.187  0.000  0.767
 
band    13 # energy   35.31950112 # occ.  0.00000000
 
ion      s     py     pz     px    dxy    dyz    dz2    dxz  x2-y2    tot
    1  0.000  0.000  0.000  0.000  0.011  0.432  0.000  0.324  0.000  0.767
 
band    14 # energy   39.08631816 # occ.  0.00000000
 
ion      s     py     pz     px    dxy    dyz    dz2    dxz  x2-y2    tot
    1  0.086  0.000  0.000  0.000  0.000  0.000  0.000  0.000  0.000  0.086
 
band    15 # energy   43.86573147 # occ.  0.00000000
 
ion      s     py     pz     px    dxy    dyz    dz2    dxz  x2-y2    tot
    1  0.000  0.144  0.144  0.144  0.000  0.000  0.000  0.000  0.000  0.432
 
band    16 # energy   43.86579238 # occ.  0.00000000
 
ion      s     py     pz     px    dxy    dyz    dz2    dxz  x2-y2    tot
    1  0.000  0.283  0.047  0.102  0.000  0.000  0.000  0.000  0.000  0.432
 
band    17 # energy   43.86579238 # occ.  0.00000000
 
ion      s     py     pz     px    dxy    dyz    dz2    dxz  x2-y2    tot
    1  0.000  0.005  0.241  0.186  0.000  0.000  0.000  0.000  0.000  0.432
 
band    18 # energy   46.42328351 # occ.  0.00000000
 
ion      s     py     pz     px    dxy    dyz    dz2    dxz  x2-y2    tot
    1  0.000  0.000  0.000  0.000  0.000  0.000  0.955  0.000  0.028  0.983
 
band    19 # energy   46.42328351 # occ.  0.00000000
 
ion      s     py     pz     px    dxy    dyz    dz2    dxz  x2-y2    tot
    1  0.000  0.000  0.000  0.000  0.000  0.000  0.028  0.000  0.955  0.983
 
band    20 # energy   60.43321653 # occ.  0.00000000
 
ion      s     py     pz     px    dxy    dyz    dz2    dxz  x2-y2    tot
    1  1.009  0.000  0.000  0.000  0.000  0.000  0.000  0.000  0.000  1.009
 

 k-point     2 :    0.02631579 0.00000000 0.02631579     weight = 0.01000000

band     1 # energy   -1.73238379 # occ.  2.00000000
 
ion      s     py     pz     px    dxy    dyz    dz2    dxz  x2-y2    tot
    1  0.584  0.002  0.000  0.000  0.000  0.000  0.000  0.000  0.000  0.586
 
band     2 # energy    4.56706217 # occ.  2.00000000
 
ion      s     py     pz     px    dxy    dyz    dz2    dxz  x2-y2    tot
    1  0.000  0.000  0.000  0.000  0.000  0.000  0.000  0.966  0.000  0.966
 
band     3 # energy    4.58510579 # occ.  2.00000000
 
ion      s     py     pz     px    dxy    dyz    dz2    dxz  x2-y2    tot
    1  0.000  0.000  0.000  0.000  0.483  0.483  0.000  0.000  0.000  0.966
 
band     4 # energy    4.58510774 # occ.  2.00000000
 
ion      s     py     pz     px    dxy    dyz    dz2    dxz  x2-y2    tot
    1  0.000  0.000  0.000  0.000  0.483  0.483  0.000  0.000  0.000  0.966
 
band     5 # energy    5.38017188 # occ.  2.00000000
 
ion      s     py     pz     px    dxy    dyz    dz2    dxz  x2-y2    tot
    1  0.000  0.000  0.000  0.000  0.000  0.000  0.247  0.000  0.740  0.987
 
band     6 # energy    5.39271093 # occ.  2.00000000
 
ion      s     py     pz     px    dxy    dyz    dz2    dxz  x2-y2    tot
    1  0.000  0.000  0.000  0.000  0.000  0.000  0.741  0.000  0.247  0.987
 
band     7 # energy   30.06337117 # occ.  0.00000000
 
ion      s     py     pz     px    dxy    dyz    dz2    dxz  x2-y2    tot
    1  0.000  0.000  0.000  0.000  0.000  0.000  0.000  0.031  0.000  0.031
 
band     8 # energy   32.40292905 # occ.  0.00000000
 
ion      s     py     pz     px    dxy    dyz    dz2    dxz  x2-y2    tot
    1  0.000  0.000  0.205  0.205  0.046  0.046  0.000  0.000  0.000  0.502
 
band     9 # energy   32.40295668 # occ.  0.00000000
 
ion      s     py     pz     px    dxy    dyz    dz2    dxz  x2-y2    tot
    1  0.000  0.000  0.205  0.205  0.046  0.046  0.000  0.000  0.000  0.502
 
band    10 # energy   32.67479059 # occ.  0.00000000
 
ion      s     py     pz     px    dxy    dyz    dz2    dxz  x2-y2    tot
    1  0.008  0.419  0.000  0.000  0.000  0.000  0.001  0.000  0.003  0.431
 
band    11 # energy   35.51651791 # occ.  0.00000000
 
ion      s     py     pz     px    dxy    dyz    dz2    dxz  x2-y2    tot
    1  0.000  0.000  0.000  0.000  0.000  0.000  0.000  0.735  0.000  0.735
 
band    12 # energy   35.75852413 # occ.  0.00000000
 
ion      s     py     pz     px    dxy    dyz    dz2    dxz  x2-y2    tot
    1  0.000  0.000  0.017  0.017  0.333  0.333  0.000  0.000  0.000  0.700
 
band    13 # energy   35.75854818 # occ.  0.00000000
 
ion      s     py     pz     px    dxy    dyz    dz2    dxz  x2-y2    tot
    1  0.000  0.000  0.017  0.017  0.333  0.333  0.000  0.000  0.000  0.700
 
band    14 # energy   39.20981180 # occ.  0.00000000
 
ion      s     py     pz     px    dxy    dyz    dz2    dxz  x2-y2    tot
    1  0.071  0.050  0.000  0.000  0.000  0.000  0.000  0.000  0.000  0.122
 
band    15 # energy   42.98674401 # occ.  0.00000000
 
ion      s     py     pz     px    dxy    dyz    dz2    dxz  x2-y2    tot
    1  0.012  0.330  0.000  0.000  0.000  0.000  0.048  0.000  0.145  0.537
 
band    16 # energy   43.92905397 # occ.  0.00000000
 
ion      s     py     pz     px    dxy    dyz    dz2    dxz  x2-y2    tot
    1  0.000  0.000  0.216  0.216  0.004  0.004  0.000  0.000  0.000  0.441
 
band    17 # energy   43.92909430 # occ.  0.00000000
 
ion      s     py     pz     px    dxy    dyz    dz2    dxz  x2-y2    tot
    1  0.000  0.000  0.216  0.216  0.004  0.004  0.000  0.000  0.000  0.441
 
band    18 # energy   46.43577520 # occ.  0.00000000
 
ion      s     py     pz     px    dxy    dyz    dz2    dxz  x2-y2    tot
    1  0.000  0.000  0.000  0.000  0.000  0.000  0.735  0.000  0.245  0.980
 
band    19 # energy   47.35193629 # occ.  0.00000000
 
ion      s     py     pz     px    dxy    dyz    dz2    dxz  x2-y2    tot
    1  0.003  0.069  0.000  0.000  0.000  0.000  0.196  0.000  0.589  0.857
 
band    20 # energy   60.54267557 # occ.  0.00000000
 
ion      s     py     pz     px    dxy    dyz    dz2    dxz  x2-y2    tot
    1  0.999  0.012  0.000  0.000  0.000  0.000  0.000  0.000  0.000  1.011
 

 k-point     3 :    0.05263158 0.00000000 0.05263158     weight = 0.01000000

band     1 # energy   -1.63145156 # occ.  2.00000000
 
ion      s     py     pz     px    dxy    dyz    dz2    dxz  x2-y2    tot
    1  0.579  0.007  0.000  0.000  0.000  0.000  0.000  0.000  0.000  0.586
 
band     2 # energy    4.53730406 # occ.  2.00000000
 
ion      s     py     pz     px    dxy    dyz    dz2    dxz  x2-y2    tot
    1  0.000  0.000  0.000  0.000  0.000  0.000  0.000  0.964  0.000  0.964
 
band     3 # energy    4.60872322 # occ.  2.00000000
 
ion      s     py     pz     px    dxy    dyz    dz2    dxz  x2-y2    tot
    1  0.000  0.000  0.000  0.000  0.483  0.483  0.000  0.000  0.000  0.966
 
band     4 # energy    4.60872519 # occ.  2.00000000
 
ion      s     py     pz     px    dxy    dyz    dz2    dxz  x2-y2    tot
    1  0.000  0.000  0.000  0.000  0.483  0.483  0.000  0.000  0.000  0.966
 
band     5 # energy    5.35091845 # occ.  2.00000000
 
ion      s     py     pz     px    dxy    dyz    dz2    dxz  x2-y2    tot
    1  0.000  0.000  0.000  0.000  0.000  0.000  0.246  0.000  0.739  0.985
 
band     6 # energy    5.40358017 # occ.  2.00000000
 
ion      s     py     pz     px    dxy    dyz    dz2    dxz  x2-y2    tot
    1  0.000  0.000  0.000  0.000  0.000  0.000  0.741  0.000  0.247  0.988
 
band     7 # energy   29.73544766 # occ.  0.00000000
 
ion      s     py     pz     px    dxy    dyz    dz2    dxz  x2-y2    tot
    1  0.000  0.000  0.000  0.000  0.000  0.000  0.000  0.102  0.000  0.102
 
band     8 # energy   31.54121808 # occ.  0.00000000
 
ion      s     py     pz     px    dxy    dyz    dz2    dxz  x2-y2    tot
    1  0.000  0.000  0.193  0.193  0.089  0.089  0.000  0.000  0.000  0.564
 
band     9 # energy   31.54124383 # occ.  0.00000000
 
ion      s     py     pz     px    dxy    dyz    dz2    dxz  x2-y2    tot
    1  0.000  0.000  0.193  0.193  0.089  0.089  0.000  0.000  0.000  0.564
 
band    10 # energy   32.27014311 # occ.  0.00000000
 
ion      s     py     pz     px    dxy    dyz    dz2    dxz  x2-y2    tot
    1  0.026  0.359  0.000  0.000  0.000  0.000  0.003  0.000  0.010  0.399
 
band    11 # energy   36.05929785 # occ.  0.00000000
 
ion      s     py     pz     px    dxy    dyz    dz2    dxz  x2-y2    tot
    1  0.000  0.000  0.000  0.000  0.000  0.000  0.000  0.665  0.000  0.665
 
band    12 # energy   36.66712759 # occ.  0.00000000
 
ion      s     py     pz     px    dxy    dyz    dz2    dxz  x2-y2    tot
    1  0.000  0.000  0.027  0.027  0.278  0.278  0.000  0.000  0.000  0.610
 
band    13 # energy   36.66715442 # occ.  0.00000000
 
ion      s     py     pz     px    dxy    dyz    dz2    dxz  x2-y2    tot
    1  0.000  0.000  0.027  0.027  0.278  0.278  0.000  0.000  0.000  0.610
 
band    14 # energy   39.30933483 # occ.  0.00000000
 
ion      s     py     pz     px    dxy    dyz    dz2    dxz  x2-y2    tot
    1  0.026  0.246  0.000  0.000  0.000  0.000  0.006  0.000  0.019  0.298
 
band    15 # energy   41.77387395 # occ.  0.00000000
 
ion      s     py     pz     px    dxy    dyz    dz2    dxz  x2-y2    tot
    1  0.051  0.159  0.000  0.000  0.000  0.000  0.068  0.000  0.203  0.481
 
band    16 # energy   44.11993223 # occ.  0.00000000
 
ion      s     py     pz     px    dxy    dyz    dz2    dxz  x2-y2    tot
    1  0.000  0.000  0.217  0.217  0.017  0.017  0.000  0.000  0.000  0.468
 
band    17 # energy   44.11997169 # occ.  0.00000000
 
ion      s     py     pz     px    dxy    dyz    dz2    dxz  x2-y2    tot
    1  0.000  0.000  0.217  0.217  0.017  0.017  0.000  0.000  0.000  0.468
 
band    18 # energy   46.47329734 # occ.  0.00000000
 
ion      s     py     pz     px    dxy    dyz    dz2    dxz  x2-y2    tot
    1  0.000  0.000  0.000  0.000  0.000  0.000  0.728  0.000  0.243  0.970
 
band    19 # energy   48.90628791 # occ.  0.00000000
 
ion      s     py     pz     px    dxy    dyz    dz2    dxz  x2-y2    tot
    1  0.020  0.083  0.000  0.000  0.000  0.000  0.169  0.000  0.506  0.778
 
band    20 # energy   60.87814744 # occ.  0.00000000
 
ion      s     py     pz     px    dxy    dyz    dz2    dxz  x2-y2    tot
    1  0.967  0.046  0.000  0.000  0.000  0.000  0.001  0.000  0.002  1.015
 

 k-point     4 :    0.07894737 0.00000000 0.07894737     weight = 0.01000000

band     1 # energy   -1.46420696 # occ.  2.00000000
 
ion      s     py     pz     px    dxy    dyz    dz2    dxz  x2-y2    tot
    1  0.571  0.015  0.000  0.000  0.000  0.000  0.000  0.000  0.000  0.586
 
band     2 # energy    4.48881636 # occ.  2.00000000
 
ion      s     py     pz     px    dxy    dyz    dz2    dxz  x2-y2    tot
    1  0.000  0.000  0.000  0.000  0.000  0.000  0.000  0.962  0.000  0.962
 
band     3 # energy    4.64832865 # occ.  2.00000000
 
ion      s     py     pz     px    dxy    dyz    dz2    dxz  x2-y2    tot
    1  0.000  0.000  0.001  0.001  0.483  0.483  0.000  0.000  0.000  0.967
 
band     4 # energy    4.64833061 # occ.  2.00000000
 
ion      s     py     pz     px    dxy    dyz    dz2    dxz  x2-y2    tot
    1  0.000  0.000  0.001  0.001  0.483  0.483  0.000  0.000  0.000  0.967
 
band     5 # energy    5.30716185 # occ.  2.00000000
 
ion      s     py     pz     px    dxy    dyz    dz2    dxz  x2-y2    tot
    1  0.000  0.000  0.000  0.000  0.000  0.000  0.246  0.000  0.737  0.983
 
band     6 # energy    5.42138852 # occ.  2.00000000
 
ion      s     py     pz     px    dxy    dyz    dz2    dxz  x2-y2    tot
    1  0.000  0.000  0.000  0.000  0.000  0.000  0.741  0.000  0.247  0.988
 
band     7 # energy   29.29605954 # occ.  0.00000000
 
ion      s     py     pz     px    dxy    dyz    dz2    dxz  x2-y2    tot
    1  0.000  0.000  0.000  0.000  0.000  0.000  0.000  0.179  0.000  0.179
 
band     8 # energy   30.57285555 # occ.  0.00000000
 
ion      s     py     pz     px    dxy    dyz    dz2    dxz  x2-y2    tot
    1  0.000  0.000  0.194  0.194  0.106  0.106  0.000  0.000  0.000  0.600
 
band     9 # energy   30.57288004 # occ.  0.00000000
 
ion      s     py     pz     px    dxy    dyz    dz2    dxz  x2-y2    tot
    1  0.000  0.000  0.194  0.194  0.106  0.106  0.000  0.000  0.000  0.600
 
band    10 # energy   31.71135493 # occ.  0.00000000
 
ion      s     py     pz     px    dxy    dyz    dz2    dxz  x2-y2    tot
    1  0.047  0.284  0.000  0.000  0.000  0.000  0.008  0.000  0.024  0.362
 
band    11 # energy   36.85572884 # occ.  0.00000000
 
ion      s     py     pz     px    dxy    dyz    dz2    dxz  x2-y2    tot
    1  0.000  0.000  0.000  0.000  0.000  0.000  0.000  0.589  0.000  0.589
 
band    12 # energy   37.71129596 # occ.  0.00000000
 
ion      s     py     pz     px    dxy    dyz    dz2    dxz  x2-y2    tot
    1  0.000  0.000  0.024  0.024  0.239  0.239  0.000  0.000  0.000  0.528
 
band    13 # energy   37.71132557 # occ.  0.00000000
 
ion      s     py     pz     px    dxy    dyz    dz2    dxz  x2-y2    tot
    1  0.000  0.000  0.025  0.025  0.239  0.239  0.000  0.000  0.000  0.528
 
band    14 # energy   38.48713688 # occ.  0.00000000
 
ion      s     py     pz     px    dxy    dyz    dz2    dxz  x2-y2    tot
    1  0.001  0.462  0.000  0.000  0.000  0.000  0.034  0.000  0.102  0.599
 
band    15 # energy   41.62723632 # occ.  0.00000000
 
ion      s     py     pz     px    dxy    dyz    dz2    dxz  x2-y2    tot
    1  0.070  0.003  0.000  0.000  0.000  0.000  0.050  0.000  0.150  0.273
 
band    16 # energy   44.44141374 # occ.  0.00000000
 
ion      s     py     pz     px    dxy    dyz    dz2    dxz  x2-y2    tot
    1  0.000  0.000  0.219  0.219  0.038  0.038  0.000  0.000  0.000  0.513
 
band    17 # energy   44.44145178 # occ.  0.00000000
 
ion      s     py     pz     px    dxy    dyz    dz2    dxz  x2-y2    tot
    1  0.000  0.000  0.219  0.219  0.038  0.038  0.000  0.000  0.000  0.513
 
band    18 # energy   46.53598234 # occ.  0.00000000
 
ion      s     py     pz     px    dxy    dyz    dz2    dxz  x2-y2    tot
    1  0.000  0.000  0.000  0.000  0.000  0.000  0.715  0.000  0.238  0.954
 
band    19 # energy   50.49162616 # occ.  0.00000000
 
ion      s     py     pz     px    dxy    dyz    dz2    dxz  x2-y2    tot
    1  0.056  0.063  0.000  0.000  0.000  0.000  0.152  0.000  0.457  0.729
 
band    20 # energy   61.46508545 # occ.  0.00000000
 
ion      s     py     pz     px    dxy    dyz    dz2    dxz  x2-y2    tot
    1  0.907  0.104  0.000  0.000  0.000  0.000  0.003  0.000  0.008  1.021
 

 k-point     5 :    0.10526316 0.00000000 0.10526316     weight = 0.01000000

band     1 # energy   -1.23219903 # occ.  2.00000000
 
ion      s     py     pz     px    dxy    dyz    dz2    dxz  x2-y2    tot
    1  0.559  0.027  0.000  0.000  0.000  0.000  0.000  0.000  0.001  0.587
 
band     2 # energy    4.42103766 # occ.  2.00000000
 
ion      s     py     pz     px    dxy    dyz    dz2    dxz  x2-y2    tot
    1  0.000  0.000  0.000  0.000  0.000  0.000  0.000  0.958  0.000  0.958
 
band     3 # energy    4.70166583 # occ.  2.00000000
 
ion      s     py     pz     px    dxy    dyz    dz2    dxz  x2-y2    tot
    1  0.000  0.000  0.001  0.001  0.482  0.482  0.000  0.000  0.000  0.967
 
band     4 # energy    4.70166773 # occ.  2.00000000
 
ion      s     py     pz     px    dxy    dyz    dz2    dxz  x2-y2    tot
    1  0.000  0.000  0.001  0.001  0.482  0.482  0.000  0.000  0.000  0.967
 
band     5 # energy    5.24910849 # occ.  2.00000000
 
ion      s     py     pz     px    dxy    dyz    dz2    dxz  x2-y2    tot
    1  0.001  0.000  0.000  0.000  0.000  0.000  0.245  0.000  0.735  0.980
 
band     6 # energy    5.44568582 # occ.  2.00000000
 
ion      s     py     pz     px    dxy    dyz    dz2    dxz  x2-y2    tot
    1  0.000  0.000  0.000  0.000  0.000  0.000  0.741  0.000  0.247  0.988
 
band     7 # energy   28.81398791 # occ.  0.00000000
 
ion      s     py     pz     px    dxy    dyz    dz2    dxz  x2-y2    tot
    1  0.000  0.000  0.000  0.000  0.000  0.000  0.000  0.248  0.000  0.248
 
band     8 # energy   29.58803252 # occ.  0.00000000
 
ion      s     py     pz     px    dxy    dyz    dz2    dxz  x2-y2    tot
    1  0.000  0.000  0.200  0.200  0.110  0.110  0.000  0.000  0.000  0.620
 
band     9 # energy   29.58805610 # occ.  0.00000000
 
ion      s     py     pz     px    dxy    dyz    dz2    dxz  x2-y2    tot
    1  0.000  0.000  0.200  0.200  0.110  0.110  0.000  0.000  0.000  0.620
 
band    10 # energy   31.07253049 # occ.  0.00000000
 
ion      s     py     pz     px    dxy    dyz    dz2    dxz  x2-y2    tot
    1  0.063  0.207  0.000  0.000  0.000  0.000  0.014  0.000  0.043  0.327
 
band    11 # energy   36.94029533 # occ.  0.00000000
 
ion      s     py     pz     px    dxy    dyz    dz2    dxz  x2-y2    tot
    1  0.024  0.513  0.000  0.000  0.000  0.000  0.044  0.000  0.133  0.714
 
band    12 # energy   37.83107310 # occ.  0.00000000
 
ion      s     py     pz     px    dxy    dyz    dz2    dxz  x2-y2    tot
    1  0.000  0.000  0.000  0.000  0.000  0.000  0.000  0.523  0.000  0.523
 
band    13 # energy   38.79447730 # occ.  0.00000000
 
ion      s     py     pz     px    dxy    dyz    dz2    dxz  x2-y2    tot
    1  0.000  0.000  0.017  0.017  0.205  0.205  0.000  0.000  0.000  0.444
 
band    14 # energy   38.79450980 # occ.  0.00000000
 
ion      s     py     pz     px    dxy    dyz    dz2    dxz  x2-y2    tot
    1  0.000  0.000  0.017  0.017  0.205  0.205  0.000  0.000  0.000  0.444
 
band    15 # energy   42.36379123 # occ.  0.00000000
 
ion      s     py     pz     px    dxy    dyz    dz2    dxz  x2-y2    tot
    1  0.050  0.016  0.000  0.000  0.000  0.000  0.044  0.000  0.132  0.242
 
band    16 # energy   44.89789312 # occ.  0.00000000
 
ion      s     py     pz     px    dxy    dyz    dz2    dxz  x2-y2    tot
    1  0.000  0.000  0.220  0.220  0.068  0.068  0.000  0.000  0.000  0.575
 
band    17 # energy   44.89792911 # occ.  0.00000000
 
ion      s     py     pz     px    dxy    dyz    dz2    dxz  x2-y2    tot
    1  0.000  0.000  0.220  0.220  0.068  0.068  0.000  0.000  0.000  0.575
 
band    18 # energy   46.62402820 # occ.  0.00000000
 
ion      s     py     pz     px    dxy    dyz    dz2    dxz  x2-y2    tot
    1  0.000  0.000  0.000  0.000  0.000  0.000  0.698  0.000  0.233  0.931
 
band    19 # energy   51.97012350 # occ.  0.00000000
 
ion      s     py     pz     px    dxy    dyz    dz2    dxz  x2-y2    tot
    1  0.112  0.033  0.000  0.000  0.000  0.000  0.136  0.000  0.409  0.690
 
band    20 # energy   62.32589101 # occ.  0.00000000
 
ion      s     py     pz     px    dxy    dyz    dz2    dxz  x2-y2    tot
    1  0.818  0.183  0.000  0.000  0.000  0.000  0.007  0.000  0.022  1.030
 

 k-point     6 :    0.13157895 0.00000000 0.13157895     weight = 0.01000000

band     1 # energy   -0.93786187 # occ.  2.00000000
 
ion      s     py     pz     px    dxy    dyz    dz2    dxz  x2-y2    tot
    1  0.543  0.041  0.000  0.000  0.000  0.000  0.001  0.000  0.002  0.587
 
band     2 # energy    4.33988603 # occ.  2.00000000
 
ion      s     py     pz     px    dxy    dyz    dz2    dxz  x2-y2    tot
    1  0.000  0.000  0.000  0.000  0.000  0.000  0.000  0.954  0.000  0.954
 
band     3 # energy    4.77206317 # occ.  2.00000000
 
ion      s     py     pz     px    dxy    dyz    dz2    dxz  x2-y2    tot
    1  0.000  0.000  0.001  0.001  0.482  0.482  0.000  0.000  0.000  0.968
 
band     4 # energy    4.77206496 # occ.  2.00000000
 
ion      s     py     pz     px    dxy    dyz    dz2    dxz  x2-y2    tot
    1  0.000  0.000  0.001  0.001  0.482  0.482  0.000  0.000  0.000  0.968
 
band     5 # energy    5.18096136 # occ.  2.00000000
 
ion      s     py     pz     px    dxy    dyz    dz2    dxz  x2-y2    tot
    1  0.002  0.001  0.000  0.000  0.000  0.000  0.244  0.000  0.731  0.977
 
band     6 # energy    5.47584547 # occ.  2.00000000
 
ion      s     py     pz     px    dxy    dyz    dz2    dxz  x2-y2    tot
    1  0.000  0.000  0.000  0.000  0.000  0.000  0.741  0.000  0.247  0.989
 
band     7 # energy   28.33485656 # occ.  0.00000000
 
ion      s     py     pz     px    dxy    dyz    dz2    dxz  x2-y2    tot
    1  0.000  0.000  0.000  0.000  0.000  0.000  0.000  0.307  0.000  0.307
 
band     8 # energy   28.61733529 # occ.  0.00000000
 
ion      s     py     pz     px    dxy    dyz    dz2    dxz  x2-y2    tot
    1  0.000  0.000  0.209  0.209  0.107  0.107  0.000  0.000  0.000  0.632
 
band     9 # energy   28.61735829 # occ.  0.00000000
 
ion      s     py     pz     px    dxy    dyz    dz2    dxz  x2-y2    tot
    1  0.000  0.000  0.209  0.209  0.107  0.107  0.000  0.000  0.000  0.632
 
band    10 # energy   30.39381031 # occ.  0.00000000
 
ion      s     py     pz     px    dxy    dyz    dz2    dxz  x2-y2    tot
    1  0.071  0.130  0.000  0.000  0.000  0.000  0.024  0.000  0.071  0.296
 
band    11 # energy   35.26387928 # occ.  0.00000000
 
ion      s     py     pz     px    dxy    dyz    dz2    dxz  x2-y2    tot
    1  0.059  0.545  0.000  0.000  0.000  0.000  0.041  0.000  0.124  0.769
 
band    12 # energy   38.94752121 # occ.  0.00000000
 
ion      s     py     pz     px    dxy    dyz    dz2    dxz  x2-y2    tot
    1  0.000  0.000  0.000  0.000  0.000  0.000  0.000  0.465  0.000  0.465
 
band    13 # energy   39.88566119 # occ.  0.00000000
 
ion      s     py     pz     px    dxy    dyz    dz2    dxz  x2-y2    tot
    1  0.000  0.000  0.009  0.009  0.169  0.169  0.000  0.000  0.000  0.355
 
band    14 # energy   39.88569690 # occ.  0.00000000
 
ion      s     py     pz     px    dxy    dyz    dz2    dxz  x2-y2    tot
    1  0.000  0.000  0.009  0.009  0.169  0.169  0.000  0.000  0.000  0.355
 
band    15 # energy   43.37268061 # occ.  0.00000000
 
ion      s     py     pz     px    dxy    dyz    dz2    dxz  x2-y2    tot
    1  0.030  0.043  0.000  0.000  0.000  0.000  0.048  0.000  0.145  0.267
 
band    16 # energy   45.49535019 # occ.  0.00000000
 
ion      s     py     pz     px    dxy    dyz    dz2    dxz  x2-y2    tot
    1  0.000  0.000  0.219  0.219  0.105  0.105  0.000  0.000  0.000  0.648
 
band    17 # energy   45.49538372 # occ.  0.00000000
 
ion      s     py     pz     px    dxy    dyz    dz2    dxz  x2-y2    tot
    1  0.000  0.000  0.219  0.219  0.105  0.105  0.000  0.000  0.000  0.648
 
band    18 # energy   46.73764611 # occ.  0.00000000
 
ion      s     py     pz     px    dxy    dyz    dz2    dxz  x2-y2    tot
    1  0.000  0.000  0.000  0.000  0.000  0.000  0.676  0.000  0.225  0.902
 
band    19 # energy   53.29917725 # occ.  0.00000000
 
ion      s     py     pz     px    dxy    dyz    dz2    dxz  x2-y2    tot
    1  0.182  0.008  0.000  0.000  0.000  0.000  0.116  0.000  0.348  0.654
 
band    20 # energy   63.47813479 # occ.  0.00000000
 
ion      s     py     pz     px    dxy    dyz    dz2    dxz  x2-y2    tot
    1  0.700  0.276  0.000  0.000  0.000  0.000  0.016  0.000  0.047  1.038
 

 k-point     7 :    0.15789474 0.00000000 0.15789474     weight = 0.01000000

band     1 # energy   -0.58491990 # occ.  2.00000000
 
ion      s     py     pz     px    dxy    dyz    dz2    dxz  x2-y2    tot
    1  0.523  0.058  0.000  0.000  0.000  0.000  0.002  0.000  0.005  0.588
 
band     2 # energy    4.24563568 # occ.  2.00000000
 
ion      s     py     pz     px    dxy    dyz    dz2    dxz  x2-y2    tot
    1  0.000  0.000  0.000  0.000  0.000  0.000  0.000  0.950  0.000  0.950
 
band     3 # energy    4.85494832 # occ.  2.00000000
 
ion      s     py     pz     px    dxy    dyz    dz2    dxz  x2-y2    tot
    1  0.000  0.000  0.002  0.002  0.482  0.482  0.000  0.000  0.000  0.969
 
band     4 # energy    4.85495006 # occ.  2.00000000
 
ion      s     py     pz     px    dxy    dyz    dz2    dxz  x2-y2    tot
    1  0.000  0.000  0.002  0.002  0.482  0.482  0.000  0.000  0.000  0.969
 
band     5 # energy    5.10561699 # occ.  2.00000000
 
ion      s     py     pz     px    dxy    dyz    dz2    dxz  x2-y2    tot
    1  0.004  0.002  0.000  0.000  0.000  0.000  0.242  0.000  0.725  0.972
 
band     6 # energy    5.51108845 # occ.  2.00000000
 
ion      s     py     pz     px    dxy    dyz    dz2    dxz  x2-y2    tot
    1  0.000  0.000  0.000  0.000  0.000  0.000  0.742  0.000  0.247  0.989
 
band     7 # energy   27.67329643 # occ.  0.00000000
 
ion      s     py     pz     px    dxy    dyz    dz2    dxz  x2-y2    tot
    1  0.000  0.000  0.218  0.218  0.101  0.101  0.000  0.000  0.000  0.638
 
band     8 # energy   27.67331903 # occ.  0.00000000
 
ion      s     py     pz     px    dxy    dyz    dz2    dxz  x2-y2    tot
    1  0.000  0.000  0.218  0.218  0.101  0.101  0.000  0.000  0.000  0.638
 
band     9 # energy   27.87637332 # occ.  0.00000000
 
ion      s     py     pz     px    dxy    dyz    dz2    dxz  x2-y2    tot
    1  0.000  0.000  0.000  0.000  0.000  0.000  0.000  0.358  0.000  0.358
 
band    10 # energy   29.67053904 # occ.  0.00000000
 
ion      s     py     pz     px    dxy    dyz    dz2    dxz  x2-y2    tot
    1  0.065  0.058  0.000  0.000  0.000  0.000  0.037  0.000  0.110  0.270
 
band    11 # energy   33.63031800 # occ.  0.00000000
 
ion      s     py     pz     px    dxy    dyz    dz2    dxz  x2-y2    tot
    1  0.107  0.575  0.000  0.000  0.000  0.000  0.032  0.000  0.095  0.809
 
band    12 # energy   40.17552978 # occ.  0.00000000
 
ion      s     py     pz     px    dxy    dyz    dz2    dxz  x2-y2    tot
    1  0.000  0.000  0.000  0.000  0.000  0.000  0.000  0.416  0.000  0.416
 
band    13 # energy   40.96606207 # occ.  0.00000000
 
ion      s     py     pz     px    dxy    dyz    dz2    dxz  x2-y2    tot
    1  0.000  0.000  0.003  0.003  0.130  0.130  0.000  0.000  0.000  0.265
 
band    14 # energy   40.96610128 # occ.  0.00000000
 
ion      s     py     pz     px    dxy    dyz    dz2    dxz  x2-y2    tot
    1  0.000  0.000  0.003  0.003  0.130  0.130  0.000  0.000  0.000  0.265
 
band    15 # energy   44.48247242 # occ.  0.00000000
 
ion      s     py     pz     px    dxy    dyz    dz2    dxz  x2-y2    tot
    1  0.015  0.058  0.000  0.000  0.000  0.000  0.057  0.000  0.172  0.302
 
band    16 # energy   46.23517785 # occ.  0.00000000
 
ion      s     py     pz     px    dxy    dyz    dz2    dxz  x2-y2    tot
    1  0.000  0.000  0.216  0.216  0.148  0.148  0.000  0.000  0.000  0.727
 
band    17 # energy   46.23520845 # occ.  0.00000000
 
ion      s     py     pz     px    dxy    dyz    dz2    dxz  x2-y2    tot
    1  0.000  0.000  0.216  0.216  0.148  0.148  0.000  0.000  0.000  0.727
 
band    18 # energy   46.87700373 # occ.  0.00000000
 
ion      s     py     pz     px    dxy    dyz    dz2    dxz  x2-y2    tot
    1  0.000  0.000  0.000  0.000  0.000  0.000  0.650  0.000  0.217  0.866
 
band    19 # energy   54.47274046 # occ.  0.00000000
 
ion      s     py     pz     px    dxy    dyz    dz2    dxz  x2-y2    tot
    1  0.252  0.000  0.000  0.000  0.000  0.000  0.093  0.000  0.278  0.622
 
band    20 # energy   64.89811699 # occ.  0.00000000
 
ion      s     py     pz     px    dxy    dyz    dz2    dxz  x2-y2    tot
    1  0.567  0.383  0.000  0.000  0.000  0.000  0.026  0.000  0.077  1.052
 

 k-point     8 :    0.18421053 0.00000000 0.18421053     weight = 0.01000000

band     1 # energy   -0.17893450 # occ.  2.00000000
 
ion      s     py     pz     px    dxy    dyz    dz2    dxz  x2-y2    tot
    1  0.499  0.077  0.000  0.000  0.000  0.000  0.004  0.000  0.011  0.590
 
band     2 # energy    4.14148857 # occ.  2.00000000
 